 vasp.5.4.4.18Apr17-6-g9f103f2a35 (build Oct 10 2023 13:53:35) complex

 executed on             LinuxIFC date 2023.12.11  10:18:16
 running on   64 total cores
 distrk:  each k-point on   64 cores,    1 groups
 distr:  one band on NCORES_PER_BAND=  16 cores,    4 groups


--------------------------------------------------------------------------------------------------------


 INCAR:
 POTCAR:    PAW_PBE H 15Jun2001
 POTCAR:    PAW_PBE H 15Jun2001
 POTCAR:    PAW_PBE H 15Jun2001
   SHA256 =  030f79b5d3ab3cf0e668861823c8fb652ff669f3e15e46930bd03bfd63a607b6 H/
   COPYR  = (c) Copyright 15Jun2001 Georg Kresse
   COPYR  = This file is part of the software VASP. Any use, copying, and all ot
   COPYR  = If you do not have a valid VASP license, you may not use, copy or di
   VRHFIN =H: ultrasoft test
   LEXCH  = PE
   EATOM  =    12.4884 eV,    0.9179 Ry

   TITEL  = PAW_PBE H 15Jun2001
   LULTRA =        F    use ultrasoft PP ?
   IUNSCR =        0    unscreen: 0-lin 1-nonlin 2-no
   RPACOR =    0.000    partial core radius
   POMASS =    1.000; ZVAL   =    1.000    mass and valenz
   RCORE  =    1.100    outmost cutoff radius
   RWIGS  =    0.700; RWIGS  =    0.370    wigner-seitz radius (au A)
   ENMAX  =  250.000; ENMIN  =  200.000 eV
   RCLOC  =    0.701    cutoff for local pot
   LCOR   =        T    correct aug charges
   LPAW   =        T    paw PP
   EAUG   =  400.000
   RMAX   =    1.123    core radius for proj-oper
   RAUG   =    1.200    factor for augmentation sphere
   RDEP   =    1.112    radius for radial grids
   RDEPT  =    0.926    core radius for aug-charge

   Atomic configuration
    2 entries
     n  l   j            E        occ.
     1  0  0.50        -6.4927   1.0000
     2  1  0.50        -3.4015   0.0000
   Description
     l       E           TYP  RCUT    TYP  RCUT
     0     -6.4927494     23  1.100
     0      6.8029130     23  1.100
     1     -4.0817478     23  1.100
  local pseudopotential read in
  atomic valenz-charges read in
  non local Contribution for L=           0  read in
    real space projection operators read in
  non local Contribution for L=           0  read in
    real space projection operators read in
  non local Contribution for L=           1  read in
    real space projection operators read in
    PAW grid and wavefunctions read in

   number of l-projection  operators is LMAX  =           3
   number of lm-projection operators is LMMAX =           5

 POTCAR:    PAW_PBE H 15Jun2001
   SHA256 =  030f79b5d3ab3cf0e668861823c8fb652ff669f3e15e46930bd03bfd63a607b6 H/
   COPYR  = (c) Copyright 15Jun2001 Georg Kresse
   COPYR  = This file is part of the software VASP. Any use, copying, and all ot
   COPYR  = If you do not have a valid VASP license, you may not use, copy or di
   VRHFIN =H: ultrasoft test
   LEXCH  = PE
   EATOM  =    12.4884 eV,    0.9179 Ry

   TITEL  = PAW_PBE H 15Jun2001
   LULTRA =        F    use ultrasoft PP ?
   IUNSCR =        0    unscreen: 0-lin 1-nonlin 2-no
   RPACOR =    0.000    partial core radius
   POMASS =    1.000; ZVAL   =    1.000    mass and valenz
   RCORE  =    1.100    outmost cutoff radius
   RWIGS  =    0.700; RWIGS  =    0.370    wigner-seitz radius (au A)
   ENMAX  =  250.000; ENMIN  =  200.000 eV
   RCLOC  =    0.701    cutoff for local pot
   LCOR   =        T    correct aug charges
   LPAW   =        T    paw PP
   EAUG   =  400.000
   RMAX   =    1.123    core radius for proj-oper
   RAUG   =    1.200    factor for augmentation sphere
   RDEP   =    1.112    radius for radial grids
   RDEPT  =    0.926    core radius for aug-charge

   Atomic configuration
    2 entries
     n  l   j            E        occ.
     1  0  0.50        -6.4927   1.0000
     2  1  0.50        -3.4015   0.0000
   Description
     l       E           TYP  RCUT    TYP  RCUT
     0     -6.4927494     23  1.100
     0      6.8029130     23  1.100
     1     -4.0817478     23  1.100
  local pseudopotential read in
  atomic valenz-charges read in
  non local Contribution for L=           0  read in
    real space projection operators read in
  non local Contribution for L=           0  read in
    real space projection operators read in
  non local Contribution for L=           1  read in
    real space projection operators read in
    PAW grid and wavefunctions read in

   number of l-projection  operators is LMAX  =           3
   number of lm-projection operators is LMMAX =           5

  PAW_PBE H 15Jun2001                   :
 energy of atom  1       EATOM=  -12.4884
 kinetic energy error for atom=    0.0045 (will be added to EATOM!!)
  PAW_PBE H 15Jun2001                   :
 energy of atom  2       EATOM=  -12.4884
 kinetic energy error for atom=    0.0045 (will be added to EATOM!!)


 POSCAR: unknown system
  positions in direct lattice
  velocities in cartesian coordinates
 exchange correlation table for  LEXCH =        8
   RHO(1)=    0.500       N(1)  =     2000
   RHO(2)=  100.500       N(2)  =     4000



--------------------------------------------------------------------------------------------------------


 ion  position               nearest neighbor table
   1  0.510  0.500  0.500-   2 0.75
   2  0.567  0.500  0.500-   1 0.75


IMPORTANT INFORMATION: All symmetrisations will be switched off!
NOSYMM: (Re-)initialisation of all symmetry stuff for point group C_1.



 KPOINTS: Regular k-point mesh          ! Type of

Automatic generation of k-mesh.
Space group operators:
 irot       det(A)        alpha          n_x          n_y          n_z        tau_x        tau_y        tau_z
    1     1.000000     0.000000     1.000000     0.000000     0.000000     0.000000     0.000000     0.000000

 Subroutine IBZKPT returns following result:
 ===========================================

 Found     63 irreducible k-points:

 Following reciprocal coordinates:
            Coordinates               Weight
  0.000000  0.000000  0.000000      1.000000
  0.200000  0.000000  0.000000      2.000000
  0.400000  0.000000  0.000000      2.000000
  0.000000  0.200000  0.000000      2.000000
  0.200000  0.200000  0.000000      2.000000
  0.400000  0.200000  0.000000      2.000000
 -0.400000  0.200000  0.000000      2.000000
 -0.200000  0.200000  0.000000      2.000000
  0.000000  0.400000  0.000000      2.000000
  0.200000  0.400000  0.000000      2.000000
  0.400000  0.400000  0.000000      2.000000
 -0.400000  0.400000  0.000000      2.000000
 -0.200000  0.400000  0.000000      2.000000
  0.000000  0.000000  0.200000      2.000000
  0.200000  0.000000  0.200000      2.000000
  0.400000  0.000000  0.200000      2.000000
 -0.400000  0.000000  0.200000      2.000000
 -0.200000  0.000000  0.200000      2.000000
  0.000000  0.200000  0.200000      2.000000
  0.200000  0.200000  0.200000      2.000000
  0.400000  0.200000  0.200000      2.000000
 -0.400000  0.200000  0.200000      2.000000
 -0.200000  0.200000  0.200000      2.000000
  0.000000  0.400000  0.200000      2.000000
  0.200000  0.400000  0.200000      2.000000
  0.400000  0.400000  0.200000      2.000000
 -0.400000  0.400000  0.200000      2.000000
 -0.200000  0.400000  0.200000      2.000000
  0.000000 -0.400000  0.200000      2.000000
  0.200000 -0.400000  0.200000      2.000000
  0.400000 -0.400000  0.200000      2.000000
 -0.400000 -0.400000  0.200000      2.000000
 -0.200000 -0.400000  0.200000      2.000000
  0.000000 -0.200000  0.200000      2.000000
  0.200000 -0.200000  0.200000      2.000000
  0.400000 -0.200000  0.200000      2.000000
 -0.400000 -0.200000  0.200000      2.000000
 -0.200000 -0.200000  0.200000      2.000000
  0.000000  0.000000  0.400000      2.000000
  0.200000  0.000000  0.400000      2.000000
  0.400000  0.000000  0.400000      2.000000
 -0.400000  0.000000  0.400000      2.000000
 -0.200000  0.000000  0.400000      2.000000
  0.000000  0.200000  0.400000      2.000000
  0.200000  0.200000  0.400000      2.000000
  0.400000  0.200000  0.400000      2.000000
 -0.400000  0.200000  0.400000      2.000000
 -0.200000  0.200000  0.400000      2.000000
  0.000000  0.400000  0.400000      2.000000
  0.200000  0.400000  0.400000      2.000000
  0.400000  0.400000  0.400000      2.000000
 -0.400000  0.400000  0.400000      2.000000
 -0.200000  0.400000  0.400000      2.000000
  0.000000 -0.400000  0.400000      2.000000
  0.200000 -0.400000  0.400000      2.000000
  0.400000 -0.400000  0.400000      2.000000
 -0.400000 -0.400000  0.400000      2.000000
 -0.200000 -0.400000  0.400000      2.000000
  0.000000 -0.200000  0.400000      2.000000
  0.200000 -0.200000  0.400000      2.000000
  0.400000 -0.200000  0.400000      2.000000
 -0.400000 -0.200000  0.400000      2.000000
 -0.200000 -0.200000  0.400000      2.000000

 Following cartesian coordinates:
            Coordinates               Weight
  0.000000  0.000000  0.000000      1.000000
  0.015385  0.000000  0.000000      2.000000
  0.030769  0.000000  0.000000      2.000000
  0.000000  0.014286  0.000000      2.000000
  0.015385  0.014286  0.000000      2.000000
  0.030769  0.014286  0.000000      2.000000
 -0.030769  0.014286  0.000000      2.000000
 -0.015385  0.014286  0.000000      2.000000
  0.000000  0.028571  0.000000      2.000000
  0.015385  0.028571  0.000000      2.000000
  0.030769  0.028571  0.000000      2.000000
 -0.030769  0.028571  0.000000      2.000000
 -0.015385  0.028571  0.000000      2.000000
  0.000000  0.000000  0.013333      2.000000
  0.015385  0.000000  0.013333      2.000000
  0.030769  0.000000  0.013333      2.000000
 -0.030769  0.000000  0.013333      2.000000
 -0.015385  0.000000  0.013333      2.000000
  0.000000  0.014286  0.013333      2.000000
  0.015385  0.014286  0.013333      2.000000
  0.030769  0.014286  0.013333      2.000000
 -0.030769  0.014286  0.013333      2.000000
 -0.015385  0.014286  0.013333      2.000000
  0.000000  0.028571  0.013333      2.000000
  0.015385  0.028571  0.013333      2.000000
  0.030769  0.028571  0.013333      2.000000
 -0.030769  0.028571  0.013333      2.000000
 -0.015385  0.028571  0.013333      2.000000
  0.000000 -0.028571  0.013333      2.000000
  0.015385 -0.028571  0.013333      2.000000
  0.030769 -0.028571  0.013333      2.000000
 -0.030769 -0.028571  0.013333      2.000000
 -0.015385 -0.028571  0.013333      2.000000
  0.000000 -0.014286  0.013333      2.000000
  0.015385 -0.014286  0.013333      2.000000
  0.030769 -0.014286  0.013333      2.000000
 -0.030769 -0.014286  0.013333      2.000000
 -0.015385 -0.014286  0.013333      2.000000
  0.000000  0.000000  0.026667      2.000000
  0.015385  0.000000  0.026667      2.000000
  0.030769  0.000000  0.026667      2.000000
 -0.030769  0.000000  0.026667      2.000000
 -0.015385  0.000000  0.026667      2.000000
  0.000000  0.014286  0.026667      2.000000
  0.015385  0.014286  0.026667      2.000000
  0.030769  0.014286  0.026667      2.000000
 -0.030769  0.014286  0.026667      2.000000
 -0.015385  0.014286  0.026667      2.000000
  0.000000  0.028571  0.026667      2.000000
  0.015385  0.028571  0.026667      2.000000
  0.030769  0.028571  0.026667      2.000000
 -0.030769  0.028571  0.026667      2.000000
 -0.015385  0.028571  0.026667      2.000000
  0.000000 -0.028571  0.026667      2.000000
  0.015385 -0.028571  0.026667      2.000000
  0.030769 -0.028571  0.026667      2.000000
 -0.030769 -0.028571  0.026667      2.000000
 -0.015385 -0.028571  0.026667      2.000000
  0.000000 -0.014286  0.026667      2.000000
  0.015385 -0.014286  0.026667      2.000000
  0.030769 -0.014286  0.026667      2.000000
 -0.030769 -0.014286  0.026667      2.000000
 -0.015385 -0.014286  0.026667      2.000000



--------------------------------------------------------------------------------------------------------




 Dimension of arrays:
   k-points           NKPTS =     63   k-points in BZ     NKDIM =     63   number of bands    NBANDS=      8
   number of dos      NEDOS =    301   number of ions     NIONS =      2
   non local maximal  LDIM  =      3   non local SUM 2l+1 LMDIM =      5
   total plane-waves  NPLWV = 952560
   max r-space proj   IRMAX =      1   max aug-charges    IRDMAX=   1895
   dimension x,y,z NGX =    90 NGY =   98 NGZ =  108
   dimension x,y,z NGXF=   180 NGYF=  196 NGZF=  216
   support grid    NGXF=   180 NGYF=  196 NGZF=  216
   ions per type =               1   1
   NGX,Y,Z   is equivalent  to a cutoff of  11.51, 11.64, 11.97 a.u.
   NGXF,Y,Z  is equivalent  to a cutoff of  23.02, 23.27, 23.94 a.u.

 SYSTEM =  unknown system
 POSCAR =  unknown system

 Startparameter for this run:
   NWRITE =      2    write-flag & timer
   PREC   = accura    normal or accurate (medium, high low for compatibility)
   ISTART =      0    job   : 0-new  1-cont  2-samecut
   ICHARG =      2    charge: 1-file 2-atom 10-const
   ISPIN  =      1    spin polarized calculation?
   LNONCOLLINEAR =      F non collinear calculations
   LSORBIT =      F    spin-orbit coupling
   INIWAV =      1    electr: 0-lowe 1-rand  2-diag
   LASPH  =      F    aspherical Exc in radial PAW
   METAGGA=      F    non-selfconsistent MetaGGA calc.

 Electronic Relaxation 1
   ENCUT  =  450.0 eV  33.07 Ry    5.75 a.u.  22.49 24.22 25.95*2*pi/ulx,y,z
   ENINI  =  450.0     initial cutoff
   ENAUG  =  400.0 eV  augmentation charge cutoff
   NELM   =    100;   NELMIN=  2; NELMDL=  0     # of ELM steps
   EDIFF  = 0.1E-07   stopping-criterion for ELM
   LREAL  =      F    real-space projection
   NLSPLINE    = F    spline interpolate recip. space projectors
   LCOMPAT=      F    compatible to vasp.4.4
   GGA_COMPAT  = T    GGA compatible to vasp.4.4-vasp.4.6
   LMAXPAW     = -100 max onsite density
   LMAXMIX     =    2 max onsite mixed and CHGCAR
   VOSKOWN=      0    Vosko Wilk Nusair interpolation
   ROPT   =    0.00000   0.00000
 Ionic relaxation
   EDIFFG = -.1E-02   stopping-criterion for IOM
   NSW    =    200    number of steps for IOM
   NBLOCK =      1;   KBLOCK =    200    inner block; outer block
   IBRION =      2    ionic relax: 0-MD 1-quasi-New 2-CG
   NFREE  =      1    steps in history (QN), initial steepest desc. (CG)
   ISIF   =      2    stress and relaxation
   IWAVPR =     11    prediction:  0-non 1-charg 2-wave 3-comb
   ISYM   =      0    0-nonsym 1-usesym 2-fastsym
   LCORR  =      T    Harris-Foulkes like correction to forces

   POTIM  = 0.1000    time-step for ionic-motion
   TEIN   =    0.0    initial temperature
   TEBEG  =    0.0;   TEEND  =   0.0 temperature during run
   SMASS  =  -3.00    Nose mass-parameter (am)
   estimated Nose-frequenzy (Omega)   =  0.10E-29 period in steps =****** mass=  -0.386E-26a.u.
   SCALEE = 1.0000    scale energy and forces
   NPACO  =    256;   APACO  = 16.0  distance and # of slots for P.C.
   PSTRESS=    0.0 pullay stress

  Mass of Ions in am
   POMASS =   1.00  1.00
  Ionic Valenz
   ZVAL   =   1.00  1.00
  Atomic Wigner-Seitz radii
   RWIGS  =  -1.00 -1.00
  virtual crystal weights
   VCA    =   1.00  1.00
   NELECT =       2.0000    total number of electrons
   NUPDOWN=      -1.0000    fix difference up-down

 DOS related values:
   EMIN   =  10.00;   EMAX   =-10.00  energy-range for DOS
   EFERMI =   0.00
   ISMEAR =     0;   SIGMA  =   0.01  broadening in eV -4-tet -1-fermi 0-gaus

 Electronic relaxation 2 (details)
   IALGO  =     68    algorithm
   LDIAG  =      T    sub-space diagonalisation (order eigenvalues)
   LSUBROT=      F    optimize rotation matrix (better conditioning)
   TURBO    =      0    0=normal 1=particle mesh
   IRESTART =      0    0=no restart 2=restart with 2 vectors
   NREBOOT  =      0    no. of reboots
   NMIN     =      0    reboot dimension
   EREF     =   0.00    reference energy to select bands
   IMIX   =      4    mixing-type and parameters
     AMIX     =   0.40;   BMIX     =  1.00
     AMIX_MAG =   1.60;   BMIX_MAG =  1.00
     AMIN     =   0.10
     WC   =   100.;   INIMIX=   1;  MIXPRE=   1;  MAXMIX= -45

 Intra band minimization:
   WEIMIN = 0.0010     energy-eigenvalue tresh-hold
   EBREAK =  0.31E-09  absolut break condition
   DEPER  =   0.30     relativ break condition

   TIME   =   0.40     timestep for ELM

  volume/ion in A,a.u.               =    1365.00      9211.47
  Fermi-wavevector in a.u.,A,eV,Ry     =   0.147581  0.278888  0.296337  0.021780
  Thomas-Fermi vector in A             =   0.819161

 Write flags
   LWAVE        =      F    write WAVECAR
   LDOWNSAMPLE  =      F    k-point downsampling of WAVECAR
   LCHARG       =      F    write CHGCAR
   LVTOT        =      F    write LOCPOT, total local potential
   LVHAR        =      F    write LOCPOT, Hartree potential only
   LELF         =      F    write electronic localiz. function (ELF)
   LORBIT       =      0    0 simple, 1 ext, 2 COOP (PROOUT), +10 PAW based schemes


 Dipole corrections
   LMONO  =      F    monopole corrections only (constant potential shift)
   LDIPOL =      F    correct potential (dipole corrections)
   IDIPOL =      0    1-x, 2-y, 3-z, 4-all directions
   EPSILON=  1.0000000 bulk dielectric constant

 Exchange correlation treatment:
   GGA     =    --    GGA type
   LEXCH   =     8    internal setting for exchange type
   VOSKOWN=      0    Vosko Wilk Nusair interpolation
   LHFCALC =     F    Hartree Fock is set to
   LHFONE  =     F    Hartree Fock one center treatment
   AEXX    =    0.0000 exact exchange contribution

 Linear response parameters
   LEPSILON=     F    determine dielectric tensor
   LRPA    =     F    only Hartree local field effects (RPA)
   LNABLA  =     F    use nabla operator in PAW spheres
   LVEL    =     F    velocity operator in full k-point grid
   LINTERFAST=   F  fast interpolation
   KINTER  =     0    interpolate to denser k-point grid
   CSHIFT  =0.1000    complex shift for real part using Kramers Kronig
   OMEGAMAX=  -1.0    maximum frequency
   DEG_THRESHOLD= 0.2000000E-02 threshold for treating states as degnerate
   RTIME   =   -0.100 relaxation time in fs
  (WPLASMAI=    0.000 imaginary part of plasma frequency in eV, 0.658/RTIME)
   DFIELD  = 0.0000000 0.0000000 0.0000000 field for delta impulse in time

 Orbital magnetization related:
   ORBITALMAG=     F  switch on orbital magnetization
   LCHIMAG   =     F  perturbation theory with respect to B field
   DQ        =  0.001000  dq finite difference perturbation B field
   LLRAUG    =     F  two centre corrections for induced B field



--------------------------------------------------------------------------------------------------------


 conjugate gradient relaxation of ions
 charge density and potential will be updated during run
 non-spin polarized calculation
 RMM-DIIS sequential band-by-band and
  variant of blocked Davidson during initial phase
 perform sub-space diagonalisation
    before iterative eigenvector-optimisation
 modified Broyden-mixing scheme, WC =      100.0
 initial mixing is a Kerker type mixing with AMIX =  0.4000 and BMIX =      1.0000
 Hartree-type preconditioning will be used
 using additional bands            7
 reciprocal scheme for non local part
 calculate Harris-corrections to forces
   (improved forces if not selfconsistent)
 use gradient corrections
 use of overlap-Matrix (Vanderbilt PP)
 Gauss-broadening in eV      SIGMA  =   0.01


--------------------------------------------------------------------------------------------------------


  energy-cutoff  :      450.00
  volume of cell :     2730.00
      direct lattice vectors                 reciprocal lattice vectors
    13.000000000  0.000000000  0.000000000     0.076923077  0.000000000  0.000000000
     0.000000000 14.000000000  0.000000000     0.000000000  0.071428571  0.000000000
     0.000000000  0.000000000 15.000000000     0.000000000  0.000000000  0.066666667

  length of vectors
    13.000000000 14.000000000 15.000000000     0.076923077  0.071428571  0.066666667



 k-points in units of 2pi/SCALE and weight: Regular k-point mesh          ! Type of
   0.00000000  0.00000000  0.00000000       0.008
   0.01538462  0.00000000  0.00000000       0.016
   0.03076923  0.00000000  0.00000000       0.016
   0.00000000  0.01428571  0.00000000       0.016
   0.01538462  0.01428571  0.00000000       0.016
   0.03076923  0.01428571  0.00000000       0.016
  -0.03076923  0.01428571  0.00000000       0.016
  -0.01538462  0.01428571  0.00000000       0.016
   0.00000000  0.02857143  0.00000000       0.016
   0.01538462  0.02857143  0.00000000       0.016
   0.03076923  0.02857143  0.00000000       0.016
  -0.03076923  0.02857143  0.00000000       0.016
  -0.01538462  0.02857143  0.00000000       0.016
   0.00000000  0.00000000  0.01333333       0.016
   0.01538462  0.00000000  0.01333333       0.016
   0.03076923  0.00000000  0.01333333       0.016
  -0.03076923  0.00000000  0.01333333       0.016
  -0.01538462  0.00000000  0.01333333       0.016
   0.00000000  0.01428571  0.01333333       0.016
   0.01538462  0.01428571  0.01333333       0.016
   0.03076923  0.01428571  0.01333333       0.016
  -0.03076923  0.01428571  0.01333333       0.016
  -0.01538462  0.01428571  0.01333333       0.016
   0.00000000  0.02857143  0.01333333       0.016
   0.01538462  0.02857143  0.01333333       0.016
   0.03076923  0.02857143  0.01333333       0.016
  -0.03076923  0.02857143  0.01333333       0.016
  -0.01538462  0.02857143  0.01333333       0.016
   0.00000000 -0.02857143  0.01333333       0.016
   0.01538462 -0.02857143  0.01333333       0.016
   0.03076923 -0.02857143  0.01333333       0.016
  -0.03076923 -0.02857143  0.01333333       0.016
  -0.01538462 -0.02857143  0.01333333       0.016
   0.00000000 -0.01428571  0.01333333       0.016
   0.01538462 -0.01428571  0.01333333       0.016
   0.03076923 -0.01428571  0.01333333       0.016
  -0.03076923 -0.01428571  0.01333333       0.016
  -0.01538462 -0.01428571  0.01333333       0.016
   0.00000000  0.00000000  0.02666667       0.016
   0.01538462  0.00000000  0.02666667       0.016
   0.03076923  0.00000000  0.02666667       0.016
  -0.03076923  0.00000000  0.02666667       0.016
  -0.01538462  0.00000000  0.02666667       0.016
   0.00000000  0.01428571  0.02666667       0.016
   0.01538462  0.01428571  0.02666667       0.016
   0.03076923  0.01428571  0.02666667       0.016
  -0.03076923  0.01428571  0.02666667       0.016
  -0.01538462  0.01428571  0.02666667       0.016
   0.00000000  0.02857143  0.02666667       0.016
   0.01538462  0.02857143  0.02666667       0.016
   0.03076923  0.02857143  0.02666667       0.016
  -0.03076923  0.02857143  0.02666667       0.016
  -0.01538462  0.02857143  0.02666667       0.016
   0.00000000 -0.02857143  0.02666667       0.016
   0.01538462 -0.02857143  0.02666667       0.016
   0.03076923 -0.02857143  0.02666667       0.016
  -0.03076923 -0.02857143  0.02666667       0.016
  -0.01538462 -0.02857143  0.02666667       0.016
   0.00000000 -0.01428571  0.02666667       0.016
   0.01538462 -0.01428571  0.02666667       0.016
   0.03076923 -0.01428571  0.02666667       0.016
  -0.03076923 -0.01428571  0.02666667       0.016
  -0.01538462 -0.01428571  0.02666667       0.016

 k-points in reciprocal lattice and weights: Regular k-point mesh          ! Type of
   0.00000000  0.00000000  0.00000000       0.008
   0.20000000  0.00000000  0.00000000       0.016
   0.40000000  0.00000000  0.00000000       0.016
   0.00000000  0.20000000  0.00000000       0.016
   0.20000000  0.20000000  0.00000000       0.016
   0.40000000  0.20000000  0.00000000       0.016
  -0.40000000  0.20000000  0.00000000       0.016
  -0.20000000  0.20000000  0.00000000       0.016
   0.00000000  0.40000000  0.00000000       0.016
   0.20000000  0.40000000  0.00000000       0.016
   0.40000000  0.40000000  0.00000000       0.016
  -0.40000000  0.40000000  0.00000000       0.016
  -0.20000000  0.40000000  0.00000000       0.016
   0.00000000  0.00000000  0.20000000       0.016
   0.20000000  0.00000000  0.20000000       0.016
   0.40000000  0.00000000  0.20000000       0.016
  -0.40000000  0.00000000  0.20000000       0.016
  -0.20000000  0.00000000  0.20000000       0.016
   0.00000000  0.20000000  0.20000000       0.016
   0.20000000  0.20000000  0.20000000       0.016
   0.40000000  0.20000000  0.20000000       0.016
  -0.40000000  0.20000000  0.20000000       0.016
  -0.20000000  0.20000000  0.20000000       0.016
   0.00000000  0.40000000  0.20000000       0.016
   0.20000000  0.40000000  0.20000000       0.016
   0.40000000  0.40000000  0.20000000       0.016
  -0.40000000  0.40000000  0.20000000       0.016
  -0.20000000  0.40000000  0.20000000       0.016
   0.00000000 -0.40000000  0.20000000       0.016
   0.20000000 -0.40000000  0.20000000       0.016
   0.40000000 -0.40000000  0.20000000       0.016
  -0.40000000 -0.40000000  0.20000000       0.016
  -0.20000000 -0.40000000  0.20000000       0.016
   0.00000000 -0.20000000  0.20000000       0.016
   0.20000000 -0.20000000  0.20000000       0.016
   0.40000000 -0.20000000  0.20000000       0.016
  -0.40000000 -0.20000000  0.20000000       0.016
  -0.20000000 -0.20000000  0.20000000       0.016
   0.00000000  0.00000000  0.40000000       0.016
   0.20000000  0.00000000  0.40000000       0.016
   0.40000000  0.00000000  0.40000000       0.016
  -0.40000000  0.00000000  0.40000000       0.016
  -0.20000000  0.00000000  0.40000000       0.016
   0.00000000  0.20000000  0.40000000       0.016
   0.20000000  0.20000000  0.40000000       0.016
   0.40000000  0.20000000  0.40000000       0.016
  -0.40000000  0.20000000  0.40000000       0.016
  -0.20000000  0.20000000  0.40000000       0.016
   0.00000000  0.40000000  0.40000000       0.016
   0.20000000  0.40000000  0.40000000       0.016
   0.40000000  0.40000000  0.40000000       0.016
  -0.40000000  0.40000000  0.40000000       0.016
  -0.20000000  0.40000000  0.40000000       0.016
   0.00000000 -0.40000000  0.40000000       0.016
   0.20000000 -0.40000000  0.40000000       0.016
   0.40000000 -0.40000000  0.40000000       0.016
  -0.40000000 -0.40000000  0.40000000       0.016
  -0.20000000 -0.40000000  0.40000000       0.016
   0.00000000 -0.20000000  0.40000000       0.016
   0.20000000 -0.20000000  0.40000000       0.016
   0.40000000 -0.20000000  0.40000000       0.016
  -0.40000000 -0.20000000  0.40000000       0.016
  -0.20000000 -0.20000000  0.40000000       0.016

 position of ions in fractional coordinates (direct lattice)
   0.50959450  0.50000000  0.50000000
   0.56732858  0.50000000  0.50000000

 position of ions in cartesian coordinates  (Angst):
   6.62472845  7.00000000  7.50000000
   7.37527155  7.00000000  7.50000000



--------------------------------------------------------------------------------------------------------


 k-point  1 :   0.0000 0.0000 0.0000  plane waves:   59139
 k-point  2 :   0.2000 0.0000 0.0000  plane waves:   59225
 k-point  3 :   0.4000 0.0000 0.0000  plane waves:   59109
 k-point  4 :   0.0000 0.2000 0.0000  plane waves:   59155
 k-point  5 :   0.2000 0.2000 0.0000  plane waves:   59151
 k-point  6 :   0.4000 0.2000 0.0000  plane waves:   59162
 k-point  7 :  -0.4000 0.2000 0.0000  plane waves:   59162
 k-point  8 :  -0.2000 0.2000 0.0000  plane waves:   59151
 k-point  9 :   0.0000 0.4000 0.0000  plane waves:   59188
 k-point 10 :   0.2000 0.4000 0.0000  plane waves:   59181
 k-point 11 :   0.4000 0.4000 0.0000  plane waves:   59106
 k-point 12 :  -0.4000 0.4000 0.0000  plane waves:   59106
 k-point 13 :  -0.2000 0.4000 0.0000  plane waves:   59181
 k-point 14 :   0.0000 0.0000 0.2000  plane waves:   59160
 k-point 15 :   0.2000 0.0000 0.2000  plane waves:   59175
 k-point 16 :   0.4000 0.0000 0.2000  plane waves:   59213
 k-point 17 :  -0.4000 0.0000 0.2000  plane waves:   59213
 k-point 18 :  -0.2000 0.0000 0.2000  plane waves:   59175
 k-point 19 :   0.0000 0.2000 0.2000  plane waves:   59159
 k-point 20 :   0.2000 0.2000 0.2000  plane waves:   59174
 k-point 21 :   0.4000 0.2000 0.2000  plane waves:   59163
 k-point 22 :  -0.4000 0.2000 0.2000  plane waves:   59163
 k-point 23 :  -0.2000 0.2000 0.2000  plane waves:   59174
 k-point 24 :   0.0000 0.4000 0.2000  plane waves:   59237
 k-point 25 :   0.2000 0.4000 0.2000  plane waves:   59198
 k-point 26 :   0.4000 0.4000 0.2000  plane waves:   59144
 k-point 27 :  -0.4000 0.4000 0.2000  plane waves:   59144
 k-point 28 :  -0.2000 0.4000 0.2000  plane waves:   59198
 k-point 29 :   0.0000-0.4000 0.2000  plane waves:   59237
 k-point 30 :   0.2000-0.4000 0.2000  plane waves:   59198
 k-point 31 :   0.4000-0.4000 0.2000  plane waves:   59144
 k-point 32 :  -0.4000-0.4000 0.2000  plane waves:   59144
 k-point 33 :  -0.2000-0.4000 0.2000  plane waves:   59198
 k-point 34 :   0.0000-0.2000 0.2000  plane waves:   59159
 k-point 35 :   0.2000-0.2000 0.2000  plane waves:   59174
 k-point 36 :   0.4000-0.2000 0.2000  plane waves:   59163
 k-point 37 :  -0.4000-0.2000 0.2000  plane waves:   59163
 k-point 38 :  -0.2000-0.2000 0.2000  plane waves:   59174
 k-point 39 :   0.0000 0.0000 0.4000  plane waves:   59180
 k-point 40 :   0.2000 0.0000 0.4000  plane waves:   59162
 k-point 41 :   0.4000 0.0000 0.4000  plane waves:   59168
 k-point 42 :  -0.4000 0.0000 0.4000  plane waves:   59168
 k-point 43 :  -0.2000 0.0000 0.4000  plane waves:   59162
 k-point 44 :   0.0000 0.2000 0.4000  plane waves:   59210
 k-point 45 :   0.2000 0.2000 0.4000  plane waves:   59183
 k-point 46 :   0.4000 0.2000 0.4000  plane waves:   59155
 k-point 47 :  -0.4000 0.2000 0.4000  plane waves:   59155
 k-point 48 :  -0.2000 0.2000 0.4000  plane waves:   59183
 k-point 49 :   0.0000 0.4000 0.4000  plane waves:   59203
 k-point 50 :   0.2000 0.4000 0.4000  plane waves:   59202
 k-point 51 :   0.4000 0.4000 0.4000  plane waves:   59208
 k-point 52 :  -0.4000 0.4000 0.4000  plane waves:   59208
 k-point 53 :  -0.2000 0.4000 0.4000  plane waves:   59202
 k-point 54 :   0.0000-0.4000 0.4000  plane waves:   59203
 k-point 55 :   0.2000-0.4000 0.4000  plane waves:   59202
 k-point 56 :   0.4000-0.4000 0.4000  plane waves:   59208
 k-point 57 :  -0.4000-0.4000 0.4000  plane waves:   59208
 k-point 58 :  -0.2000-0.4000 0.4000  plane waves:   59202
 k-point 59 :   0.0000-0.2000 0.4000  plane waves:   59210
 k-point 60 :   0.2000-0.2000 0.4000  plane waves:   59183
 k-point 61 :   0.4000-0.2000 0.4000  plane waves:   59155
 k-point 62 :  -0.4000-0.2000 0.4000  plane waves:   59155
 k-point 63 :  -0.2000-0.2000 0.4000  plane waves:   59183

 maximum and minimum number of plane-waves per node :      3732     3655

 maximum number of plane-waves:     59237
 maximum index in each direction:
   IXMAX=   22   IYMAX=   24   IZMAX=   25
   IXMIN=  -22   IYMIN=  -24   IZMIN=  -26


 parallel 3D FFT for wavefunctions:
    minimum data exchange during FFTs selected (reduces bandwidth)
 parallel 3D FFT for charge:
    minimum data exchange during FFTs selected (reduces bandwidth)


 total amount of memory used by VASP MPI-rank0    72167. kBytes
=======================================================================

   base      :      30000. kBytes
   nonl-proj :      18806. kBytes
   fftplans  :       6160. kBytes
   grid      :       9709. kBytes
   one-center:          1. kBytes
   wavefun   :       7491. kBytes

     INWAV:  cpu time    0.0000: real time    0.0002
 Broyden mixing: mesh for mixing (old mesh)
   NGX = 45   NGY = 49   NGZ = 51
  (NGX  =180   NGY  =196   NGZ  =216)
  gives a total of 112455 points

 initial charge density was supplied:
 charge density of overlapping atoms calculated
 number of electron       2.0000000 magnetization
 keeping initial charge density in first step


--------------------------------------------------------------------------------------------------------


 Maximum index for augmentation-charges            0 (set IRDMAX)


--------------------------------------------------------------------------------------------------------


 First call to EWALD:  gamma=   0.127
 Maximum number of real-space cells 3x 3x 3
 Maximum number of reciprocal cells 3x 3x 3

    FEWALD:  cpu time    0.0013: real time    0.0013


--------------------------------------- Iteration      1(   1)  ---------------------------------------


    POTLOK:  cpu time    0.1034: real time    0.1036
    SETDIJ:  cpu time    0.0013: real time    0.0014
     EDDAV:  cpu time    2.3075: real time    2.3079
       DOS:  cpu time    0.0003: real time    0.0003
    --------------------------------------------
      LOOP:  cpu time    2.4125: real time    2.4132

 eigenvalue-minimisations  :  1384
 total energy-change (2. order) :-0.7792093E-01  (-0.3157225E+02)
 number of electron       2.0000000 magnetization
 augmentation part        2.0000000 magnetization

 Free energy of the ion-electron system (eV)
  ---------------------------------------------------
  alpha Z        PSCENC =         0.00356948
  Ewald energy   TEWEN  =        13.37814843
  -Hartree energ DENC   =       -22.88983735
  -exchange      EXHF   =         0.00000000
  -V(xc)+E(xc)   XCENC  =         4.34943080
  PAW double counting   =         4.26805487       -4.28581044
  entropy T*S    EENTRO =        -0.00000000
  eigenvalues    EBANDS =       -19.86927215
  atomic energy  EATOM  =        24.96779543
  Solvation  Ediel_sol  =         0.00000000
  ---------------------------------------------------
  free energy    TOTEN  =        -0.07792093 eV

  energy without entropy =       -0.07792093  energy(sigma->0) =       -0.07792093


--------------------------------------------------------------------------------------------------------




--------------------------------------- Iteration      1(   2)  ---------------------------------------


     EDDAV:  cpu time    1.9417: real time    1.9436
       DOS:  cpu time    0.0002: real time    0.0089
    --------------------------------------------
      LOOP:  cpu time    1.9419: real time    1.9525

 eigenvalue-minimisations  :  1104
 total energy-change (2. order) :-0.6978134E+01  (-0.6978134E+01)
 number of electron       2.0000000 magnetization
 augmentation part        2.0000000 magnetization

 Free energy of the ion-electron system (eV)
  ---------------------------------------------------
  alpha Z        PSCENC =         0.00356948
  Ewald energy   TEWEN  =        13.37814843
  -Hartree energ DENC   =       -22.88983735
  -exchange      EXHF   =         0.00000000
  -V(xc)+E(xc)   XCENC  =         4.34943080
  PAW double counting   =         4.26805487       -4.28581044
  entropy T*S    EENTRO =        -0.00000000
  eigenvalues    EBANDS =       -26.84740633
  atomic energy  EATOM  =        24.96779543
  Solvation  Ediel_sol  =         0.00000000
  ---------------------------------------------------
  free energy    TOTEN  =        -7.05605511 eV

  energy without entropy =       -7.05605511  energy(sigma->0) =       -7.05605511


--------------------------------------------------------------------------------------------------------




--------------------------------------- Iteration      1(   3)  ---------------------------------------


     EDDAV:  cpu time    2.7049: real time    2.7085
       DOS:  cpu time    0.0002: real time    0.0002
    --------------------------------------------
      LOOP:  cpu time    2.7051: real time    2.7087

 eigenvalue-minimisations  :  1704
 total energy-change (2. order) :-0.3891029E+00  (-0.3891029E+00)
 number of electron       2.0000000 magnetization
 augmentation part        2.0000000 magnetization

 Free energy of the ion-electron system (eV)
  ---------------------------------------------------
  alpha Z        PSCENC =         0.00356948
  Ewald energy   TEWEN  =        13.37814843
  -Hartree energ DENC   =       -22.88983735
  -exchange      EXHF   =         0.00000000
  -V(xc)+E(xc)   XCENC  =         4.34943080
  PAW double counting   =         4.26805487       -4.28581044
  entropy T*S    EENTRO =        -0.00000000
  eigenvalues    EBANDS =       -27.23650925
  atomic energy  EATOM  =        24.96779543
  Solvation  Ediel_sol  =         0.00000000
  ---------------------------------------------------
  free energy    TOTEN  =        -7.44515803 eV

  energy without entropy =       -7.44515803  energy(sigma->0) =       -7.44515803


--------------------------------------------------------------------------------------------------------




--------------------------------------- Iteration      1(   4)  ---------------------------------------


     EDDAV:  cpu time    1.8929: real time    1.8952
       DOS:  cpu time    0.0002: real time    0.0002
    --------------------------------------------
      LOOP:  cpu time    1.8930: real time    1.8954

 eigenvalue-minimisations  :  1072
 total energy-change (2. order) :-0.2727036E-02  (-0.2727036E-02)
 number of electron       2.0000000 magnetization
 augmentation part        2.0000000 magnetization

 Free energy of the ion-electron system (eV)
  ---------------------------------------------------
  alpha Z        PSCENC =         0.00356948
  Ewald energy   TEWEN  =        13.37814843
  -Hartree energ DENC   =       -22.88983735
  -exchange      EXHF   =         0.00000000
  -V(xc)+E(xc)   XCENC  =         4.34943080
  PAW double counting   =         4.26805487       -4.28581044
  entropy T*S    EENTRO =        -0.00000000
  eigenvalues    EBANDS =       -27.23923629
  atomic energy  EATOM  =        24.96779543
  Solvation  Ediel_sol  =         0.00000000
  ---------------------------------------------------
  free energy    TOTEN  =        -7.44788507 eV

  energy without entropy =       -7.44788507  energy(sigma->0) =       -7.44788507


--------------------------------------------------------------------------------------------------------




--------------------------------------- Iteration      1(   5)  ---------------------------------------


     EDDAV:  cpu time    2.6762: real time    2.6779
       DOS:  cpu time    0.0003: real time    0.0003
    CHARGE:  cpu time    0.0740: real time    0.0740
    MIXING:  cpu time    0.0022: real time    0.0022
    --------------------------------------------
      LOOP:  cpu time    2.7527: real time    2.7545

 eigenvalue-minimisations  :  1680
 total energy-change (2. order) :-0.1904818E-04  (-0.1904818E-04)
 number of electron       2.0000003 magnetization
 augmentation part        0.0465148 magnetization

 Broyden mixing:
  rms(total) = 0.44563E+00    rms(broyden)= 0.44551E+00
  rms(prec ) = 0.50581E+00
  weight for this iteration     100.00

 Free energy of the ion-electron system (eV)
  ---------------------------------------------------
  alpha Z        PSCENC =         0.00356948
  Ewald energy   TEWEN  =        13.37814843
  -Hartree energ DENC   =       -22.88983735
  -exchange      EXHF   =         0.00000000
  -V(xc)+E(xc)   XCENC  =         4.34943080
  PAW double counting   =         4.26805487       -4.28581044
  entropy T*S    EENTRO =        -0.00000000
  eigenvalues    EBANDS =       -27.23925534
  atomic energy  EATOM  =        24.96779543
  Solvation  Ediel_sol  =         0.00000000
  ---------------------------------------------------
  free energy    TOTEN  =        -7.44790412 eV

  energy without entropy =       -7.44790412  energy(sigma->0) =       -7.44790412


--------------------------------------------------------------------------------------------------------




--------------------------------------- Iteration      1(   6)  ---------------------------------------


    POTLOK:  cpu time    0.0969: real time    0.0971
    SETDIJ:  cpu time    0.0009: real time    0.0009
    EDDIAG:  cpu time    0.3937: real time    0.4024
  RMM-DIIS:  cpu time    1.6217: real time    1.6222
    ORTHCH:  cpu time    0.0287: real time    0.0287
       DOS:  cpu time    0.0002: real time    0.0002
    CHARGE:  cpu time    0.0687: real time    0.0687
    MIXING:  cpu time    0.0028: real time    0.0028
    --------------------------------------------
      LOOP:  cpu time    2.2136: real time    2.2230

 eigenvalue-minimisations  :  1008
 total energy-change (2. order) : 0.4425961E+00  (-0.1698448E-01)
 number of electron       2.0000003 magnetization
 augmentation part        0.0447271 magnetization

 Broyden mixing:
  rms(total) = 0.24495E+00    rms(broyden)= 0.24495E+00
  rms(prec ) = 0.28103E+00
  weight for this iteration     100.00

 eigenvalues of (default mixing * dielectric matrix)
  average eigenvalue GAMMA=   2.1960
  2.1960

 Free energy of the ion-electron system (eV)
  ---------------------------------------------------
  alpha Z        PSCENC =         0.00356948
  Ewald energy   TEWEN  =        13.37814843
  -Hartree energ DENC   =       -25.37528485
  -exchange      EXHF   =         0.00000000
  -V(xc)+E(xc)   XCENC  =         4.70515241
  PAW double counting   =        10.82441067      -10.85570671
  entropy T*S    EENTRO =        -0.00000000
  eigenvalues    EBANDS =       -24.65339284
  atomic energy  EATOM  =        24.96779543
  Solvation  Ediel_sol  =         0.00000000
  ---------------------------------------------------
  free energy    TOTEN  =        -7.00530798 eV

  energy without entropy =       -7.00530798  energy(sigma->0) =       -7.00530798


--------------------------------------------------------------------------------------------------------




--------------------------------------- Iteration      1(   7)  ---------------------------------------


    POTLOK:  cpu time    0.1009: real time    0.1012
    SETDIJ:  cpu time    0.0013: real time    0.0013
    EDDIAG:  cpu time    0.3730: real time    0.3731
  RMM-DIIS:  cpu time    1.6089: real time    1.6100
    ORTHCH:  cpu time    0.0281: real time    0.0281
       DOS:  cpu time    0.0002: real time    0.0002
    CHARGE:  cpu time    0.0670: real time    0.0670
    MIXING:  cpu time    0.0030: real time    0.0030
    --------------------------------------------
      LOOP:  cpu time    2.1825: real time    2.1838

 eigenvalue-minimisations  :  1008
 total energy-change (2. order) : 0.2435072E+00  (-0.4716069E-01)
 number of electron       2.0000003 magnetization
 augmentation part        0.0418207 magnetization

 Broyden mixing:
  rms(total) = 0.30024E-01    rms(broyden)= 0.29974E-01
  rms(prec ) = 0.35525E-01
  weight for this iteration     100.00

 eigenvalues of (default mixing * dielectric matrix)
  average eigenvalue GAMMA=   2.5823
  2.5823  2.5823

 Free energy of the ion-electron system (eV)
  ---------------------------------------------------
  alpha Z        PSCENC =         0.00356948
  Ewald energy   TEWEN  =        13.37814843
  -Hartree energ DENC   =       -29.22251390
  -exchange      EXHF   =         0.00000000
  -V(xc)+E(xc)   XCENC  =         5.26295307
  PAW double counting   =        23.88220323      -23.93531065
  entropy T*S    EENTRO =        -0.00000000
  eigenvalues    EBANDS =       -21.09864583
  atomic energy  EATOM  =        24.96779543
  Solvation  Ediel_sol  =         0.00000000
  ---------------------------------------------------
  free energy    TOTEN  =        -6.76180074 eV

  energy without entropy =       -6.76180074  energy(sigma->0) =       -6.76180074


--------------------------------------------------------------------------------------------------------




--------------------------------------- Iteration      1(   8)  ---------------------------------------


    POTLOK:  cpu time    0.0995: real time    0.0997
    SETDIJ:  cpu time    0.0016: real time    0.0016
    EDDIAG:  cpu time    0.3664: real time    0.3675
  RMM-DIIS:  cpu time    1.6077: real time    1.6092
    ORTHCH:  cpu time    0.0300: real time    0.0300
       DOS:  cpu time    0.0002: real time    0.0002
    CHARGE:  cpu time    0.0670: real time    0.0670
    MIXING:  cpu time    0.0026: real time    0.0026
    --------------------------------------------
      LOOP:  cpu time    2.1752: real time    2.1778

 eigenvalue-minimisations  :  1008
 total energy-change (2. order) :-0.4029326E-02  (-0.5013106E-03)
 number of electron       2.0000003 magnetization
 augmentation part        0.0419101 magnetization

 Broyden mixing:
  rms(total) = 0.23909E-01    rms(broyden)= 0.23907E-01
  rms(prec ) = 0.28273E-01
  weight for this iteration     100.00

 eigenvalues of (default mixing * dielectric matrix)
  average eigenvalue GAMMA=   1.9878
  0.9337  2.5148  2.5148

 Free energy of the ion-electron system (eV)
  ---------------------------------------------------
  alpha Z        PSCENC =         0.00356948
  Ewald energy   TEWEN  =        13.37814843
  -Hartree energ DENC   =       -29.11117220
  -exchange      EXHF   =         0.00000000
  -V(xc)+E(xc)   XCENC  =         5.23235805
  PAW double counting   =        22.57188642      -22.61876587
  entropy T*S    EENTRO =        -0.00000000
  eigenvalues    EBANDS =       -21.18964980
  atomic energy  EATOM  =        24.96779543
  Solvation  Ediel_sol  =         0.00000000
  ---------------------------------------------------
  free energy    TOTEN  =        -6.76583006 eV

  energy without entropy =       -6.76583006  energy(sigma->0) =       -6.76583006


--------------------------------------------------------------------------------------------------------




--------------------------------------- Iteration      1(   9)  ---------------------------------------


    POTLOK:  cpu time    0.1009: real time    0.1011
    SETDIJ:  cpu time    0.0017: real time    0.0017
    EDDIAG:  cpu time    0.3531: real time    0.3532
  RMM-DIIS:  cpu time    1.6083: real time    1.6094
    ORTHCH:  cpu time    0.0345: real time    0.0345
       DOS:  cpu time    0.0002: real time    0.0002
    CHARGE:  cpu time    0.0666: real time    0.0666
    MIXING:  cpu time    0.0029: real time    0.0029
    --------------------------------------------
      LOOP:  cpu time    2.1682: real time    2.1696

 eigenvalue-minimisations  :  1008
 total energy-change (2. order) : 0.3463508E-02  (-0.3724325E-03)
 number of electron       2.0000003 magnetization
 augmentation part        0.0416787 magnetization

 Broyden mixing:
  rms(total) = 0.41407E-02    rms(broyden)= 0.41358E-02
  rms(prec ) = 0.71449E-02
  weight for this iteration     100.00

 eigenvalues of (default mixing * dielectric matrix)
  average eigenvalue GAMMA=   2.5958
  4.3005  1.0028  2.7171  2.3628

 Free energy of the ion-electron system (eV)
  ---------------------------------------------------
  alpha Z        PSCENC =         0.00356948
  Ewald energy   TEWEN  =        13.37814843
  -Hartree energ DENC   =       -29.52442313
  -exchange      EXHF   =         0.00000000
  -V(xc)+E(xc)   XCENC  =         5.28829256
  PAW double counting   =        23.91886953      -23.96770992
  entropy T*S    EENTRO =        -0.00000000
  eigenvalues    EBANDS =       -20.82690892
  atomic energy  EATOM  =        24.96779543
  Solvation  Ediel_sol  =         0.00000000
  ---------------------------------------------------
  free energy    TOTEN  =        -6.76236656 eV

  energy without entropy =       -6.76236656  energy(sigma->0) =       -6.76236656


--------------------------------------------------------------------------------------------------------




--------------------------------------- Iteration      1(  10)  ---------------------------------------


    POTLOK:  cpu time    0.1001: real time    0.1004
    SETDIJ:  cpu time    0.0019: real time    0.0019
    EDDIAG:  cpu time    0.3509: real time    0.3509
  RMM-DIIS:  cpu time    1.6151: real time    1.6224
    ORTHCH:  cpu time    0.0295: real time    0.0297
       DOS:  cpu time    0.0002: real time    0.0002
    CHARGE:  cpu time    0.0661: real time    0.0661
    MIXING:  cpu time    0.0031: real time    0.0031
    --------------------------------------------
      LOOP:  cpu time    2.1669: real time    2.1748

 eigenvalue-minimisations  :  1008
 total energy-change (2. order) :-0.1403849E-02  (-0.1503940E-03)
 number of electron       2.0000003 magnetization
 augmentation part        0.0415770 magnetization

 Broyden mixing:
  rms(total) = 0.33987E-02    rms(broyden)= 0.33972E-02
  rms(prec ) = 0.42518E-02
  weight for this iteration     100.00

 eigenvalues of (default mixing * dielectric matrix)
  average eigenvalue GAMMA=   2.2096
  4.2080  2.5116  2.4149  0.9568  0.9568

 Free energy of the ion-electron system (eV)
  ---------------------------------------------------
  alpha Z        PSCENC =         0.00356948
  Ewald energy   TEWEN  =        13.37814843
  -Hartree energ DENC   =       -29.74429326
  -exchange      EXHF   =         0.00000000
  -V(xc)+E(xc)   XCENC  =         5.30873525
  PAW double counting   =        23.98965713      -24.03931667
  entropy T*S    EENTRO =        -0.00000000
  eigenvalues    EBANDS =       -20.62806620
  atomic energy  EATOM  =        24.96779543
  Solvation  Ediel_sol  =         0.00000000
  ---------------------------------------------------
  free energy    TOTEN  =        -6.76377041 eV

  energy without entropy =       -6.76377041  energy(sigma->0) =       -6.76377041


--------------------------------------------------------------------------------------------------------




--------------------------------------- Iteration      1(  11)  ---------------------------------------


    POTLOK:  cpu time    0.0963: real time    0.0995
    SETDIJ:  cpu time    0.0019: real time    0.0019
    EDDIAG:  cpu time    0.3529: real time    0.3534
  RMM-DIIS:  cpu time    1.6037: real time    1.6075
    ORTHCH:  cpu time    0.0284: real time    0.0284
       DOS:  cpu time    0.0002: real time    0.0002
    CHARGE:  cpu time    0.0664: real time    0.0664
    MIXING:  cpu time    0.0028: real time    0.0028
    --------------------------------------------
      LOOP:  cpu time    2.1525: real time    2.1602

 eigenvalue-minimisations  :  1008
 total energy-change (2. order) :-0.5320799E-03  (-0.2079626E-05)
 number of electron       2.0000003 magnetization
 augmentation part        0.0415791 magnetization

 Broyden mixing:
  rms(total) = 0.13199E-02    rms(broyden)= 0.13197E-02
  rms(prec ) = 0.22722E-02
  weight for this iteration     100.00

 eigenvalues of (default mixing * dielectric matrix)
  average eigenvalue GAMMA=   2.7082
  5.3922  3.9856  2.5965  2.2689  1.0055  1.0003

 Free energy of the ion-electron system (eV)
  ---------------------------------------------------
  alpha Z        PSCENC =         0.00356948
  Ewald energy   TEWEN  =        13.37814843
  -Hartree energ DENC   =       -29.72545685
  -exchange      EXHF   =         0.00000000
  -V(xc)+E(xc)   XCENC  =         5.30501562
  PAW double counting   =        23.92260402      -23.97192337
  entropy T*S    EENTRO =        -0.00000000
  eigenvalues    EBANDS =       -20.64405524
  atomic energy  EATOM  =        24.96779543
  Solvation  Ediel_sol  =         0.00000000
  ---------------------------------------------------
  free energy    TOTEN  =        -6.76430249 eV

  energy without entropy =       -6.76430249  energy(sigma->0) =       -6.76430249


--------------------------------------------------------------------------------------------------------




--------------------------------------- Iteration      1(  12)  ---------------------------------------


    POTLOK:  cpu time    0.0989: real time    0.0991
    SETDIJ:  cpu time    0.0021: real time    0.0021
    EDDIAG:  cpu time    0.3544: real time    0.3546
  RMM-DIIS:  cpu time    1.6199: real time    1.6247
    ORTHCH:  cpu time    0.0282: real time    0.0282
       DOS:  cpu time    0.0002: real time    0.0002
    CHARGE:  cpu time    0.0661: real time    0.0661
    MIXING:  cpu time    0.0029: real time    0.0029
    --------------------------------------------
      LOOP:  cpu time    2.1726: real time    2.1779

 eigenvalue-minimisations  :  1008
 total energy-change (2. order) :-0.1810740E-02  (-0.4233261E-04)
 number of electron       2.0000003 magnetization
 augmentation part        0.0415949 magnetization

 Broyden mixing:
  rms(total) = 0.11350E-02    rms(broyden)= 0.11350E-02
  rms(prec ) = 0.13722E-02
  weight for this iteration     100.00

 eigenvalues of (default mixing * dielectric matrix)
  average eigenvalue GAMMA=   2.8695
  5.9757  1.0610  0.9915  2.2275  3.1605  3.1605  3.5096

 Free energy of the ion-electron system (eV)
  ---------------------------------------------------
  alpha Z        PSCENC =         0.00356948
  Ewald energy   TEWEN  =        13.37814843
  -Hartree energ DENC   =       -29.69762223
  -exchange      EXHF   =         0.00000000
  -V(xc)+E(xc)   XCENC  =         5.29785617
  PAW double counting   =        23.85394382      -23.90295143
  entropy T*S    EENTRO =        -0.00000000
  eigenvalues    EBANDS =       -20.66685288
  atomic energy  EATOM  =        24.96779543
  Solvation  Ediel_sol  =         0.00000000
  ---------------------------------------------------
  free energy    TOTEN  =        -6.76611323 eV

  energy without entropy =       -6.76611323  energy(sigma->0) =       -6.76611323


--------------------------------------------------------------------------------------------------------




--------------------------------------- Iteration      1(  13)  ---------------------------------------


    POTLOK:  cpu time    0.0980: real time    0.0983
    SETDIJ:  cpu time    0.0020: real time    0.0020
    EDDIAG:  cpu time    0.3503: real time    0.3505
  RMM-DIIS:  cpu time    1.6067: real time    1.6131
    ORTHCH:  cpu time    0.0286: real time    0.0290
       DOS:  cpu time    0.0002: real time    0.0002
    CHARGE:  cpu time    0.0660: real time    0.0660
    MIXING:  cpu time    0.0030: real time    0.0030
    --------------------------------------------
      LOOP:  cpu time    2.1549: real time    2.1621

 eigenvalue-minimisations  :  1008
 total energy-change (2. order) :-0.2565939E-03  (-0.3321349E-05)
 number of electron       2.0000003 magnetization
 augmentation part        0.0415758 magnetization

 Broyden mixing:
  rms(total) = 0.11345E-02    rms(broyden)= 0.11345E-02
  rms(prec ) = 0.12637E-02
  weight for this iteration     100.00

 eigenvalues of (default mixing * dielectric matrix)
  average eigenvalue GAMMA=   2.8179
  7.2760  4.1740  3.3583  2.5807  2.2290  1.0268  1.0268  0.8717

 Free energy of the ion-electron system (eV)
  ---------------------------------------------------
  alpha Z        PSCENC =         0.00356948
  Ewald energy   TEWEN  =        13.37814843
  -Hartree energ DENC   =       -29.73022043
  -exchange      EXHF   =         0.00000000
  -V(xc)+E(xc)   XCENC  =         5.30170948
  PAW double counting   =        23.90497054      -23.95427969
  entropy T*S    EENTRO =        -0.00000000
  eigenvalues    EBANDS =       -20.63806306
  atomic energy  EATOM  =        24.96779543
  Solvation  Ediel_sol  =         0.00000000
  ---------------------------------------------------
  free energy    TOTEN  =        -6.76636982 eV

  energy without entropy =       -6.76636982  energy(sigma->0) =       -6.76636982


--------------------------------------------------------------------------------------------------------




--------------------------------------- Iteration      1(  14)  ---------------------------------------


    POTLOK:  cpu time    0.0981: real time    0.0984
    SETDIJ:  cpu time    0.0020: real time    0.0020
    EDDIAG:  cpu time    0.3498: real time    0.3508
  RMM-DIIS:  cpu time    1.5997: real time    1.6112
    ORTHCH:  cpu time    0.0275: real time    0.0275
       DOS:  cpu time    0.0002: real time    0.0002
    CHARGE:  cpu time    0.0660: real time    0.0660
    MIXING:  cpu time    0.0029: real time    0.0033
    --------------------------------------------
      LOOP:  cpu time    2.1463: real time    2.1595

 eigenvalue-minimisations  :  1008
 total energy-change (2. order) :-0.1027094E-03  (-0.1273320E-05)
 number of electron       2.0000003 magnetization
 augmentation part        0.0415791 magnetization

 Broyden mixing:
  rms(total) = 0.34043E-03    rms(broyden)= 0.34043E-03
  rms(prec ) = 0.40280E-03
  weight for this iteration     100.00

 eigenvalues of (default mixing * dielectric matrix)
  average eigenvalue GAMMA=   2.9996
  8.0992  4.8049  3.6999  2.5807  2.5807  2.1776  1.0719  1.0158  0.9660

 Free energy of the ion-electron system (eV)
  ---------------------------------------------------
  alpha Z        PSCENC =         0.00356948
  Ewald energy   TEWEN  =        13.37814843
  -Hartree energ DENC   =       -29.72239357
  -exchange      EXHF   =         0.00000000
  -V(xc)+E(xc)   XCENC  =         5.30036690
  PAW double counting   =        23.88519923      -23.93439910
  entropy T*S    EENTRO =        -0.00000000
  eigenvalues    EBANDS =       -20.64475932
  atomic energy  EATOM  =        24.96779543
  Solvation  Ediel_sol  =         0.00000000
  ---------------------------------------------------
  free energy    TOTEN  =        -6.76647253 eV

  energy without entropy =       -6.76647253  energy(sigma->0) =       -6.76647253


--------------------------------------------------------------------------------------------------------




--------------------------------------- Iteration      1(  15)  ---------------------------------------


    POTLOK:  cpu time    0.0981: real time    0.0983
    SETDIJ:  cpu time    0.0021: real time    0.0021
    EDDIAG:  cpu time    0.3555: real time    0.3563
  RMM-DIIS:  cpu time    1.6020: real time    1.6095
    ORTHCH:  cpu time    0.0285: real time    0.0287
       DOS:  cpu time    0.0002: real time    0.0002
    CHARGE:  cpu time    0.0663: real time    0.0663
    MIXING:  cpu time    0.0031: real time    0.0031
    --------------------------------------------
      LOOP:  cpu time    2.1557: real time    2.1645

 eigenvalue-minimisations  :  1008
 total energy-change (2. order) :-0.4266520E-04  (-0.1878992E-06)
 number of electron       2.0000003 magnetization
 augmentation part        0.0415831 magnetization

 Broyden mixing:
  rms(total) = 0.63693E-04    rms(broyden)= 0.63641E-04
  rms(prec ) = 0.93657E-04
  weight for this iteration     100.00

 eigenvalues of (default mixing * dielectric matrix)
  average eigenvalue GAMMA=   2.9325
  8.3287  5.1046  3.4010  3.4010  2.4008  2.1628  0.9790  0.9900  1.0800  1.4776

 Free energy of the ion-electron system (eV)
  ---------------------------------------------------
  alpha Z        PSCENC =         0.00356948
  Ewald energy   TEWEN  =        13.37814843
  -Hartree energ DENC   =       -29.71883195
  -exchange      EXHF   =         0.00000000
  -V(xc)+E(xc)   XCENC  =         5.29970625
  PAW double counting   =        23.88114045      -23.93029224
  entropy T*S    EENTRO =        -0.00000000
  eigenvalues    EBANDS =       -20.64775104
  atomic energy  EATOM  =        24.96779543
  Solvation  Ediel_sol  =         0.00000000
  ---------------------------------------------------
  free energy    TOTEN  =        -6.76651519 eV

  energy without entropy =       -6.76651519  energy(sigma->0) =       -6.76651519


--------------------------------------------------------------------------------------------------------




--------------------------------------- Iteration      1(  16)  ---------------------------------------


    POTLOK:  cpu time    0.0980: real time    0.1008
    SETDIJ:  cpu time    0.0008: real time    0.0008
    EDDIAG:  cpu time    0.3583: real time    0.3610
  RMM-DIIS:  cpu time    1.6061: real time    1.6109
    ORTHCH:  cpu time    0.0286: real time    0.0288
       DOS:  cpu time    0.0002: real time    0.0002
    CHARGE:  cpu time    0.0659: real time    0.0659
    MIXING:  cpu time    0.0033: real time    0.0033
    --------------------------------------------
      LOOP:  cpu time    2.1613: real time    2.1718

 eigenvalue-minimisations  :  1008
 total energy-change (2. order) :-0.1115193E-04  (-0.1761387E-07)
 number of electron       2.0000003 magnetization
 augmentation part        0.0415842 magnetization

 Broyden mixing:
  rms(total) = 0.55587E-04    rms(broyden)= 0.55574E-04
  rms(prec ) = 0.76975E-04
  weight for this iteration     100.00

 eigenvalues of (default mixing * dielectric matrix)
  average eigenvalue GAMMA=   3.0369
  8.6875  5.5602  4.4423  3.2533  2.7792  2.4516  2.1390  0.9773  0.9773  1.0603
  1.0780

 Free energy of the ion-electron system (eV)
  ---------------------------------------------------
  alpha Z        PSCENC =         0.00356948
  Ewald energy   TEWEN  =        13.37814843
  -Hartree energ DENC   =       -29.71770861
  -exchange      EXHF   =         0.00000000
  -V(xc)+E(xc)   XCENC  =         5.29951156
  PAW double counting   =        23.87800441      -23.92715721
  entropy T*S    EENTRO =        -0.00000000
  eigenvalues    EBANDS =       -20.64868982
  atomic energy  EATOM  =        24.96779543
  Solvation  Ediel_sol  =         0.00000000
  ---------------------------------------------------
  free energy    TOTEN  =        -6.76652635 eV

  energy without entropy =       -6.76652635  energy(sigma->0) =       -6.76652635


--------------------------------------------------------------------------------------------------------




--------------------------------------- Iteration      1(  17)  ---------------------------------------


    POTLOK:  cpu time    0.1016: real time    0.1019
    SETDIJ:  cpu time    0.0008: real time    0.0008
    EDDIAG:  cpu time    0.3614: real time    0.3618
  RMM-DIIS:  cpu time    1.6114: real time    1.6140
    ORTHCH:  cpu time    0.0292: real time    0.0292
       DOS:  cpu time    0.0002: real time    0.0002
    CHARGE:  cpu time    0.0663: real time    0.0663
    MIXING:  cpu time    0.0034: real time    0.0034
    --------------------------------------------
      LOOP:  cpu time    2.1743: real time    2.1775

 eigenvalue-minimisations  :  1008
 total energy-change (2. order) :-0.6293841E-05  (-0.1080377E-07)
 number of electron       2.0000003 magnetization
 augmentation part        0.0415837 magnetization

 Broyden mixing:
  rms(total) = 0.20193E-04    rms(broyden)= 0.20193E-04
  rms(prec ) = 0.27001E-04
  weight for this iteration     100.00

 eigenvalues of (default mixing * dielectric matrix)
  average eigenvalue GAMMA=   3.0943
  8.9392  6.1723  4.6218  3.6516  3.0168  2.4479  2.2238  1.9801  1.0711  0.9715
  0.9988  1.0361

 Free energy of the ion-electron system (eV)
  ---------------------------------------------------
  alpha Z        PSCENC =         0.00356948
  Ewald energy   TEWEN  =        13.37814843
  -Hartree energ DENC   =       -29.71903820
  -exchange      EXHF   =         0.00000000
  -V(xc)+E(xc)   XCENC  =         5.29967944
  PAW double counting   =        23.87842781      -23.92758230
  entropy T*S    EENTRO =        -0.00000000
  eigenvalues    EBANDS =       -20.64753273
  atomic energy  EATOM  =        24.96779543
  Solvation  Ediel_sol  =         0.00000000
  ---------------------------------------------------
  free energy    TOTEN  =        -6.76653264 eV

  energy without entropy =       -6.76653264  energy(sigma->0) =       -6.76653264


--------------------------------------------------------------------------------------------------------




--------------------------------------- Iteration      1(  18)  ---------------------------------------


    POTLOK:  cpu time    0.0999: real time    0.1002
    SETDIJ:  cpu time    0.0008: real time    0.0008
    EDDIAG:  cpu time    0.3575: real time    0.3578
  RMM-DIIS:  cpu time    1.6095: real time    1.6100
    ORTHCH:  cpu time    0.0303: real time    0.0303
       DOS:  cpu time    0.0002: real time    0.0003
    CHARGE:  cpu time    0.0662: real time    0.0662
    MIXING:  cpu time    0.0034: real time    0.0034
    --------------------------------------------
      LOOP:  cpu time    2.1678: real time    2.1689

 eigenvalue-minimisations  :  1008
 total energy-change (2. order) :-0.2267030E-05  (-0.5224673E-08)
 number of electron       2.0000003 magnetization
 augmentation part        0.0415830 magnetization

 Broyden mixing:
  rms(total) = 0.42419E-04    rms(broyden)= 0.42417E-04
  rms(prec ) = 0.49003E-04
  weight for this iteration     100.00

 eigenvalues of (default mixing * dielectric matrix)
  average eigenvalue GAMMA=   3.1092
  9.0651  6.8509  4.7387  4.0179  3.0901  2.8460  2.4701  2.1499  0.9752  1.0065
  1.0410  1.0410  1.1272

 Free energy of the ion-electron system (eV)
  ---------------------------------------------------
  alpha Z        PSCENC =         0.00356948
  Ewald energy   TEWEN  =        13.37814843
  -Hartree energ DENC   =       -29.71991449
  -exchange      EXHF   =         0.00000000
  -V(xc)+E(xc)   XCENC  =         5.29979781
  PAW double counting   =        23.88097539      -23.93013734
  entropy T*S    EENTRO =        -0.00000000
  eigenvalues    EBANDS =       -20.64676960
  atomic energy  EATOM  =        24.96779543
  Solvation  Ediel_sol  =         0.00000000
  ---------------------------------------------------
  free energy    TOTEN  =        -6.76653491 eV

  energy without entropy =       -6.76653491  energy(sigma->0) =       -6.76653491


--------------------------------------------------------------------------------------------------------




--------------------------------------- Iteration      1(  19)  ---------------------------------------


    POTLOK:  cpu time    0.1020: real time    0.1041
    SETDIJ:  cpu time    0.0011: real time    0.0011
    EDDIAG:  cpu time    0.3530: real time    0.3531
  RMM-DIIS:  cpu time    1.6158: real time    1.6206
    ORTHCH:  cpu time    0.0285: real time    0.0285
       DOS:  cpu time    0.0002: real time    0.0002
    CHARGE:  cpu time    0.0668: real time    0.0693
    MIXING:  cpu time    0.0031: real time    0.0031
    --------------------------------------------
      LOOP:  cpu time    2.1707: real time    2.1802

 eigenvalue-minimisations  :  1008
 total energy-change (2. order) :-0.9198756E-06  (-0.3013748E-08)
 number of electron       2.0000003 magnetization
 augmentation part        0.0415835 magnetization

 Broyden mixing:
  rms(total) = 0.60888E-05    rms(broyden)= 0.60859E-05
  rms(prec ) = 0.83012E-05
  weight for this iteration     100.00

 eigenvalues of (default mixing * dielectric matrix)
  average eigenvalue GAMMA=   3.2339
  9.2876  7.3898  5.2248  4.2542  3.6977  2.8502  2.8502  2.4793  2.1508  1.0773
  0.9852  0.9852  1.0212  1.0212

 Free energy of the ion-electron system (eV)
  ---------------------------------------------------
  alpha Z        PSCENC =         0.00356948
  Ewald energy   TEWEN  =        13.37814843
  -Hartree energ DENC   =       -29.71906751
  -exchange      EXHF   =         0.00000000
  -V(xc)+E(xc)   XCENC  =         5.29967344
  PAW double counting   =        23.87935601      -23.92851311
  entropy T*S    EENTRO =        -0.00000000
  eigenvalues    EBANDS =       -20.64749799
  atomic energy  EATOM  =        24.96779543
  Solvation  Ediel_sol  =         0.00000000
  ---------------------------------------------------
  free energy    TOTEN  =        -6.76653583 eV

  energy without entropy =       -6.76653583  energy(sigma->0) =       -6.76653583


--------------------------------------------------------------------------------------------------------




--------------------------------------- Iteration      1(  20)  ---------------------------------------


    POTLOK:  cpu time    0.0987: real time    0.1007
    SETDIJ:  cpu time    0.0008: real time    0.0008
    EDDIAG:  cpu time    0.3539: real time    0.3540
  RMM-DIIS:  cpu time    1.5223: real time    1.5316
    ORTHCH:  cpu time    0.0290: real time    0.0290
       DOS:  cpu time    0.0002: real time    0.0002
    CHARGE:  cpu time    0.0711: real time    0.0727
    MIXING:  cpu time    0.0037: real time    0.0037
    --------------------------------------------
      LOOP:  cpu time    2.0796: real time    2.0926

 eigenvalue-minimisations  :   945
 total energy-change (2. order) :-0.5024024E-06  (-0.3313453E-09)
 number of electron       2.0000003 magnetization
 augmentation part        0.0415834 magnetization

 Broyden mixing:
  rms(total) = 0.13259E-05    rms(broyden)= 0.13258E-05
  rms(prec ) = 0.25577E-05
  weight for this iteration     100.00

 eigenvalues of (default mixing * dielectric matrix)
  average eigenvalue GAMMA=   3.1598
  9.3689  7.6585  5.2616  4.6648  3.5797  3.0737  2.4896  2.4896  2.1326  1.5929
  1.0694  0.9830  0.9830  1.0251  1.0251

 Free energy of the ion-electron system (eV)
  ---------------------------------------------------
  alpha Z        PSCENC =         0.00356948
  Ewald energy   TEWEN  =        13.37814843
  -Hartree energ DENC   =       -29.71923975
  -exchange      EXHF   =         0.00000000
  -V(xc)+E(xc)   XCENC  =         5.29969576
  PAW double counting   =        23.87954378      -23.92870125
  entropy T*S    EENTRO =        -0.00000000
  eigenvalues    EBANDS =       -20.64734820
  atomic energy  EATOM  =        24.96779543
  Solvation  Ediel_sol  =         0.00000000
  ---------------------------------------------------
  free energy    TOTEN  =        -6.76653633 eV

  energy without entropy =       -6.76653633  energy(sigma->0) =       -6.76653633


--------------------------------------------------------------------------------------------------------




--------------------------------------- Iteration      1(  21)  ---------------------------------------


    POTLOK:  cpu time    0.1016: real time    0.1018
    SETDIJ:  cpu time    0.0008: real time    0.0008
    EDDIAG:  cpu time    0.3522: real time    0.3532
  RMM-DIIS:  cpu time    1.5296: real time    1.5376
    ORTHCH:  cpu time    0.0312: real time    0.0312
       DOS:  cpu time    0.0002: real time    0.0002
    CHARGE:  cpu time    0.0724: real time    0.0724
    MIXING:  cpu time    0.0038: real time    0.0038
    --------------------------------------------
      LOOP:  cpu time    2.0918: real time    2.1010

 eigenvalue-minimisations  :   945
 total energy-change (2. order) :-0.1591145E-06  (-0.1392834E-09)
 number of electron       2.0000003 magnetization
 augmentation part        0.0415834 magnetization

 Broyden mixing:
  rms(total) = 0.91989E-06    rms(broyden)= 0.91984E-06
  rms(prec ) = 0.13767E-05
  weight for this iteration     100.00

 eigenvalues of (default mixing * dielectric matrix)
  average eigenvalue GAMMA=   3.2681
  9.6661  8.2220  6.1089  4.7437  3.9867  3.4117  2.8836  2.1494  2.5225  2.5225
  1.0777  1.0329  0.9841  0.9980  0.9902  0.9902

 Free energy of the ion-electron system (eV)
  ---------------------------------------------------
  alpha Z        PSCENC =         0.00356948
  Ewald energy   TEWEN  =        13.37814843
  -Hartree energ DENC   =       -29.71920426
  -exchange      EXHF   =         0.00000000
  -V(xc)+E(xc)   XCENC  =         5.29968998
  PAW double counting   =        23.87942463      -23.92858190
  entropy T*S    EENTRO =        -0.00000000
  eigenvalues    EBANDS =       -20.64737826
  atomic energy  EATOM  =        24.96779543
  Solvation  Ediel_sol  =         0.00000000
  ---------------------------------------------------
  free energy    TOTEN  =        -6.76653649 eV

  energy without entropy =       -6.76653649  energy(sigma->0) =       -6.76653649


--------------------------------------------------------------------------------------------------------




--------------------------------------- Iteration      1(  22)  ---------------------------------------


    POTLOK:  cpu time    0.1021: real time    0.1028
    SETDIJ:  cpu time    0.0009: real time    0.0009
    EDDIAG:  cpu time    0.3509: real time    0.3510
  RMM-DIIS:  cpu time    1.5386: real time    1.5389
    ORTHCH:  cpu time    0.0360: real time    0.0374
       DOS:  cpu time    0.0002: real time    0.0002
    CHARGE:  cpu time    0.0714: real time    0.0714
    MIXING:  cpu time    0.0038: real time    0.0038
    --------------------------------------------
      LOOP:  cpu time    2.1040: real time    2.1064

 eigenvalue-minimisations  :   945
 total energy-change (2. order) :-0.7301744E-07  (-0.3676450E-10)
 number of electron       2.0000003 magnetization
 augmentation part        0.0415834 magnetization

 Broyden mixing:
  rms(total) = 0.11417E-05    rms(broyden)= 0.11416E-05
  rms(prec ) = 0.12538E-05
  weight for this iteration     100.00

 eigenvalues of (default mixing * dielectric matrix)
  average eigenvalue GAMMA=   3.1898
  9.7279  8.2245  6.2233  4.5439  4.2637  3.0739  3.0739  2.5071  2.5071  2.1328
  1.8946  1.0756  1.0370  1.0063  0.9742  0.9806  0.9806

 Free energy of the ion-electron system (eV)
  ---------------------------------------------------
  alpha Z        PSCENC =         0.00356948
  Ewald energy   TEWEN  =        13.37814843
  -Hartree energ DENC   =       -29.71920957
  -exchange      EXHF   =         0.00000000
  -V(xc)+E(xc)   XCENC  =         5.29969083
  PAW double counting   =        23.87946962      -23.92862690
  entropy T*S    EENTRO =        -0.00000000
  eigenvalues    EBANDS =       -20.64737388
  atomic energy  EATOM  =        24.96779543
  Solvation  Ediel_sol  =         0.00000000
  ---------------------------------------------------
  free energy    TOTEN  =        -6.76653656 eV

  energy without entropy =       -6.76653656  energy(sigma->0) =       -6.76653656


--------------------------------------------------------------------------------------------------------




--------------------------------------- Iteration      1(  23)  ---------------------------------------


    POTLOK:  cpu time    0.1031: real time    0.1034
    SETDIJ:  cpu time    0.0008: real time    0.0008
    EDDIAG:  cpu time    0.3508: real time    0.3512
  RMM-DIIS:  cpu time    1.4849: real time    1.4869
    ORTHCH:  cpu time    0.0346: real time    0.0349
       DOS:  cpu time    0.0002: real time    0.0002
    --------------------------------------------
      LOOP:  cpu time    1.9743: real time    1.9773

 eigenvalue-minimisations  :   882
 total energy-change (2. order) :-0.5987904E-08  ( 0.0000000E+00)
 number of electron       2.0000003 magnetization
 augmentation part        0.0415834 magnetization

 Free energy of the ion-electron system (eV)
  ---------------------------------------------------
  alpha Z        PSCENC =         0.00356948
  Ewald energy   TEWEN  =        13.37814843
  -Hartree energ DENC   =       -29.71923166
  -exchange      EXHF   =         0.00000000
  -V(xc)+E(xc)   XCENC  =         5.29969375
  PAW double counting   =        23.87951140      -23.92866897
  entropy T*S    EENTRO =        -0.00000000
  eigenvalues    EBANDS =       -20.64735442
  atomic energy  EATOM  =        24.96779543
  Solvation  Ediel_sol  =         0.00000000
  ---------------------------------------------------
  free energy    TOTEN  =        -6.76653657 eV

  energy without entropy =       -6.76653657  energy(sigma->0) =       -6.76653657


--------------------------------------------------------------------------------------------------------




 average (electrostatic) potential at core
  the test charge radii are     0.5201  0.5201
  (the norm of the test charge is              1.0000)
       1 -41.6193       2 -41.6194



 E-fermi : -10.2565     XC(G=0):  -0.1484     alpha+bet : -0.0202


 k-point     1 :       0.0000    0.0000    0.0000
  band No.  band energies     occupation
      1     -10.3236      2.00000
      2      -0.0844      0.00000
      3       0.2541      0.00000
      4       0.5008      0.00000
      5       0.5589      0.00000
      6       0.5717      0.00000
      7       0.7148      0.00000
      8       0.8343      0.00000

 k-point     2 :       0.2000    0.0000    0.0000
  band No.  band energies     occupation
      1     -10.3237      2.00000
      2      -0.0577      0.00000
      3       0.2172      0.00000
      4       0.5292      0.00000
      5       0.5572      0.00000
      6       0.5980      0.00000
      7       0.7154      0.00000
      8       0.7654      0.00000

 k-point     3 :       0.4000    0.0000    0.0000
  band No.  band energies     occupation
      1     -10.3236      2.00000
      2       0.0146      0.00000
      3       0.1310      0.00000
      4       0.4925      0.00000
      5       0.5975      0.00000
      6       0.6583      0.00000
      7       0.7456      0.00000
      8       0.8572      0.00000

 k-point     4 :       0.0000    0.2000    0.0000
  band No.  band energies     occupation
      1     -10.3237      2.00000
      2      -0.0563      0.00000
      3       0.2579      0.00000
      4       0.3739      0.00000
      5       0.5238      0.00000
      6       0.6054      0.00000
      7       0.8445      0.00000
      8       0.9069      0.00000

 k-point     5 :       0.2000    0.2000    0.0000
  band No.  band energies     occupation
      1     -10.3236      2.00000
      2      -0.0305      0.00000
      3       0.2239      0.00000
      4       0.4060      0.00000
      5       0.5515      0.00000
      6       0.6032      0.00000
      7       0.7322      0.00000
      8       0.9022      0.00000

 k-point     6 :       0.4000    0.2000    0.0000
  band No.  band energies     occupation
      1     -10.3237      2.00000
      2       0.0374      0.00000
      3       0.1506      0.00000
      4       0.4588      0.00000
      5       0.5312      0.00000
      6       0.6169      0.00000
      7       0.7548      0.00000
      8       0.8185      0.00000

 k-point     7 :      -0.4000    0.2000    0.0000
  band No.  band energies     occupation
      1     -10.3237      2.00000
      2       0.0374      0.00000
      3       0.1506      0.00000
      4       0.4588      0.00000
      5       0.5312      0.00000
      6       0.6169      0.00000
      7       0.7548      0.00000
      8       0.8185      0.00000

 k-point     8 :      -0.2000    0.2000    0.0000
  band No.  band energies     occupation
      1     -10.3236      2.00000
      2      -0.0305      0.00000
      3       0.2239      0.00000
      4       0.4060      0.00000
      5       0.5515      0.00000
      6       0.6032      0.00000
      7       0.7322      0.00000
      8       0.9022      0.00000

 k-point     9 :       0.0000    0.4000    0.0000
  band No.  band energies     occupation
      1     -10.3237      2.00000
      2       0.0244      0.00000
      3       0.1854      0.00000
      4       0.2643      0.00000
      5       0.5770      0.00000
      6       0.6848      0.00000
      7       0.8093      0.00000
      8       0.8647      0.00000

 k-point    10 :       0.2000    0.4000    0.0000
  band No.  band energies     occupation
      1     -10.3237      2.00000
      2       0.0452      0.00000
      3       0.2050      0.00000
      4       0.2583      0.00000
      5       0.6022      0.00000
      6       0.6595      0.00000
      7       0.7549      0.00000
      8       0.8297      0.00000

 k-point    11 :       0.4000    0.4000    0.0000
  band No.  band energies     occupation
      1     -10.3236      2.00000
      2       0.0896      0.00000
      3       0.2038      0.00000
      4       0.3145      0.00000
      5       0.4723      0.00000
      6       0.6578      0.00000
      7       0.6977      0.00000
      8       0.8577      0.00000

 k-point    12 :      -0.4000    0.4000    0.0000
  band No.  band energies     occupation
      1     -10.3236      2.00000
      2       0.0896      0.00000
      3       0.2038      0.00000
      4       0.3145      0.00000
      5       0.4723      0.00000
      6       0.6578      0.00000
      7       0.6977      0.00000
      8       0.8577      0.00000

 k-point    13 :      -0.2000    0.4000    0.0000
  band No.  band energies     occupation
      1     -10.3237      2.00000
      2       0.0452      0.00000
      3       0.2050      0.00000
      4       0.2583      0.00000
      5       0.6022      0.00000
      6       0.6595      0.00000
      7       0.7549      0.00000
      8       0.8298      0.00000

 k-point    14 :       0.0000    0.0000    0.2000
  band No.  band energies     occupation
[...]
      3       0.2209      0.00000
      4       0.3375      0.00000
      5       0.4875      0.00000
      6       0.5413      0.00000
      7       0.6779      0.00000
      8       0.7350      0.00000

 k-point    27 :      -0.4000    0.4000    0.2000
  band No.  band energies     occupation
      1     -10.3237      2.00000
      2       0.1030      0.00000
      3       0.2209      0.00000
      4       0.3375      0.00000
      5       0.4875      0.00000
      6       0.5413      0.00000
      7       0.6779      0.00000
      8       0.7350      0.00000

 k-point    28 :      -0.2000    0.4000    0.2000
  band No.  band energies     occupation
      1     -10.3237      2.00000
      2       0.0667      0.00000
      3       0.2225      0.00000
      4       0.2693      0.00000
      5       0.4550      0.00000
      6       0.6246      0.00000
      7       0.7298      0.00000
      8       0.8394      0.00000

 k-point    29 :       0.0000   -0.4000    0.2000
  band No.  band energies     occupation
      1     -10.3237      2.00000
      2       0.0477      0.00000
      3       0.2096      0.00000
      4       0.2663      0.00000
      5       0.4236      0.00000
      6       0.5996      0.00000
      7       0.8752      0.00000
      8       0.9653      0.00000

 k-point    30 :       0.2000   -0.4000    0.2000
  band No.  band energies     occupation
      1     -10.3237      2.00000
      2       0.0667      0.00000
      3       0.2225      0.00000
      4       0.2693      0.00000
      5       0.4550      0.00000
      6       0.6246      0.00000
      7       0.7298      0.00000
      8       0.8394      0.00000

 k-point    31 :       0.4000   -0.4000    0.2000
  band No.  band energies     occupation
      1     -10.3237      2.00000
      2       0.1030      0.00000
      3       0.2209      0.00000
      4       0.3375      0.00000
      5       0.4875      0.00000
      6       0.5413      0.00000
      7       0.6779      0.00000
      8       0.7350      0.00000

 k-point    32 :      -0.4000   -0.4000    0.2000
  band No.  band energies     occupation
      1     -10.3237      2.00000
      2       0.1030      0.00000
      3       0.2209      0.00000
      4       0.3375      0.00000
      5       0.4875      0.00000
      6       0.5413      0.00000
      7       0.6779      0.00000
      8       0.7350      0.00000

 k-point    33 :      -0.2000   -0.4000    0.2000
  band No.  band energies     occupation
      1     -10.3237      2.00000
      2       0.0667      0.00000
      3       0.2225      0.00000
      4       0.2693      0.00000
      5       0.4550      0.00000
      6       0.6246      0.00000
      7       0.7298      0.00000
      8       0.8394      0.00000

 k-point    34 :       0.0000   -0.2000    0.2000
  band No.  band energies     occupation
      1     -10.3237      2.00000
      2      -0.0322      0.00000
      3       0.2603      0.00000
      4       0.3457      0.00000
      5       0.4011      0.00000
      6       0.7314      0.00000
      7       0.8533      0.00000
      8       0.9018      0.00000

 k-point    35 :       0.2000   -0.2000    0.2000
  band No.  band energies     occupation
      1     -10.3237      2.00000
      2      -0.0073      0.00000
      3       0.2282      0.00000
      4       0.3794      0.00000
      5       0.4329      0.00000
      6       0.6697      0.00000
      7       0.7952      0.00000
      8       0.8905      0.00000

 k-point    36 :       0.4000   -0.2000    0.2000
  band No.  band energies     occupation
      1     -10.3237      2.00000
      2       0.0555      0.00000
      3       0.1666      0.00000
      4       0.4391      0.00000
      5       0.5035      0.00000
      6       0.5421      0.00000
      7       0.7340      0.00000
      8       0.8519      0.00000

 k-point    37 :      -0.4000   -0.2000    0.2000
  band No.  band energies     occupation
      1     -10.3237      2.00000
      2       0.0555      0.00000
      3       0.1666      0.00000
      4       0.4391      0.00000
      5       0.5035      0.00000
      6       0.5421      0.00000
      7       0.7340      0.00000
      8       0.8519      0.00000

 k-point    38 :      -0.2000   -0.2000    0.2000
  band No.  band energies     occupation
      1     -10.3237      2.00000
      2      -0.0073      0.00000
      3       0.2282      0.00000
      4       0.3794      0.00000
      5       0.4329      0.00000
      6       0.6697      0.00000
      7       0.7952      0.00000
      8       0.8905      0.00000

 k-point    39 :       0.0000    0.0000    0.4000
  band No.  band energies     occupation
      1     -10.3237      2.00000
      2       0.0080      0.00000
      3       0.1569      0.00000
      4       0.2609      0.00000
      5       0.6253      0.00000
      6       0.7566      0.00000
      7       0.8553      0.00000
      8       0.9312      0.00000

 k-point    40 :       0.2000    0.0000    0.4000
  band No.  band energies     occupation
      1     -10.3237      2.00000
      2       0.0294      0.00000
      3       0.1830      0.00000
      4       0.2462      0.00000
      5       0.6485      0.00000
      6       0.6643      0.00000
      7       0.7946      0.00000
      8       0.8638      0.00000

 k-point    41 :       0.4000    0.0000    0.4000
  band No.  band energies     occupation
      1     -10.3237      2.00000
      2       0.0774      0.00000
      3       0.1905      0.00000
      4       0.2880      0.00000
      5       0.4520      0.00000
      6       0.6979      0.00000
      7       0.7083      0.00000
      8       0.9209      0.00000

 k-point    42 :      -0.4000    0.0000    0.4000
  band No.  band energies     occupation
      1     -10.3237      2.00000
      2       0.0774      0.00000
      3       0.1905      0.00000
      4       0.2880      0.00000
      5       0.4520      0.00000
      6       0.6979      0.00000
      7       0.7083      0.00000
      8       0.9208      0.00000

 k-point    43 :      -0.2000    0.0000    0.4000
  band No.  band energies     occupation
      1     -10.3237      2.00000
      2       0.0294      0.00000
      3       0.1830      0.00000
      4       0.2462      0.00000
      5       0.6485      0.00000
      6       0.6643      0.00000
      7       0.7946      0.00000
      8       0.8638      0.00000

 k-point    44 :       0.0000    0.2000    0.4000
  band No.  band energies     occupation
      1     -10.3237      2.00000
      2       0.0352      0.00000
      3       0.1855      0.00000
      4       0.2642      0.00000
      5       0.4572      0.00000
      6       0.6293      0.00000
      7       0.9088      0.00000
      8       0.9819      0.00000

 k-point    45 :       0.2000    0.2000    0.4000
  band No.  band energies     occupation
      1     -10.3237      2.00000
      2       0.0548      0.00000
      3       0.2080      0.00000
      4       0.2561      0.00000
      5       0.4877      0.00000
      6       0.6481      0.00000
      7       0.7249      0.00000
      8       0.8441      0.00000

 k-point    46 :       0.4000    0.2000    0.4000
  band No.  band energies     occupation
      1     -10.3237      2.00000
      2       0.0947      0.00000
      3       0.2107      0.00000
      4       0.3157      0.00000
      5       0.4765      0.00000
      6       0.5635      0.00000
      7       0.6856      0.00000
      8       0.7645      0.00000

 k-point    47 :      -0.4000    0.2000    0.4000
  band No.  band energies     occupation
      1     -10.3237      2.00000
      2       0.0947      0.00000
      3       0.2107      0.00000
      4       0.3157      0.00000
      5       0.4765      0.00000
      6       0.5635      0.00000
      7       0.6856      0.00000
      8       0.7645      0.00000

 k-point    48 :      -0.2000    0.2000    0.4000
  band No.  band energies     occupation
      1     -10.3237      2.00000
      2       0.0548      0.00000
      3       0.2080      0.00000
      4       0.2561      0.00000
      5       0.4877      0.00000
      6       0.6481      0.00000
      7       0.7249      0.00000
      8       0.8441      0.00000

 k-point    49 :       0.0000    0.4000    0.4000
  band No.  band energies     occupation
      1     -10.3237      2.00000
      2       0.1116      0.00000
      3       0.2635      0.00000
      4       0.2696      0.00000
      5       0.2813      0.00000
      6       0.4373      0.00000
      7       0.9805      0.00000
      8       1.0354      0.00000

 k-point    50 :       0.2000    0.4000    0.4000
  band No.  band energies     occupation
      1     -10.3237      2.00000
      2       0.1205      0.00000
      3       0.2502      0.00000
      4       0.3083      0.00000
      5       0.3184      0.00000
      6       0.4710      0.00000
      7       0.7766      0.00000
      8       0.8421      0.00000

 k-point    51 :       0.4000    0.4000    0.4000
  band No.  band energies     occupation
      1     -10.3237      2.00000
      2       0.1286      0.00000
      3       0.2692      0.00000
      4       0.3905      0.00000
      5       0.4026      0.00000
      6       0.5341      0.00000
      7       0.5932      0.00000
      8       0.6263      0.00000

 k-point    52 :      -0.4000    0.4000    0.4000
  band No.  band energies     occupation
      1     -10.3237      2.00000
      2       0.1286      0.00000
      3       0.2692      0.00000
      4       0.3905      0.00000
      5       0.4026      0.00000
      6       0.5341      0.00000
      7       0.5932      0.00000
      8       0.6263      0.00000

 k-point    53 :      -0.2000    0.4000    0.4000
  band No.  band energies     occupation
      1     -10.3237      2.00000
      2       0.1205      0.00000
      3       0.2502      0.00000
      4       0.3083      0.00000
      5       0.3184      0.00000
      6       0.4710      0.00000
      7       0.7766      0.00000
      8       0.8421      0.00000

 k-point    54 :       0.0000   -0.4000    0.4000
  band No.  band energies     occupation
      1     -10.3237      2.00000
      2       0.1116      0.00000
      3       0.2635      0.00000
      4       0.2696      0.00000
      5       0.2813      0.00000
      6       0.4373      0.00000
      7       0.9805      0.00000
      8       1.0354      0.00000

 k-point    55 :       0.2000   -0.4000    0.4000
  band No.  band energies     occupation
      1     -10.3237      2.00000
      2       0.1205      0.00000
      3       0.2502      0.00000
      4       0.3083      0.00000
      5       0.3184      0.00000
      6       0.4710      0.00000
      7       0.7766      0.00000
      8       0.8421      0.00000

 k-point    56 :       0.4000   -0.4000    0.4000
  band No.  band energies     occupation
      1     -10.3237      2.00000
      2       0.1286      0.00000
      3       0.2692      0.00000
      4       0.3905      0.00000
      5       0.4026      0.00000
      6       0.5341      0.00000
      7       0.5932      0.00000
      8       0.6263      0.00000

 k-point    57 :      -0.4000   -0.4000    0.4000
  band No.  band energies     occupation
      1     -10.3237      2.00000
      2       0.1286      0.00000
      3       0.2692      0.00000
      4       0.3905      0.00000
      5       0.4026      0.00000
      6       0.5341      0.00000
      7       0.5932      0.00000
      8       0.6263      0.00000

 k-point    58 :      -0.2000   -0.4000    0.4000
  band No.  band energies     occupation
      1     -10.3237      2.00000
      2       0.1205      0.00000
      3       0.2502      0.00000
      4       0.3083      0.00000
      5       0.3184      0.00000
      6       0.4710      0.00000
      7       0.7766      0.00000
      8       0.8421      0.00000

 k-point    59 :       0.0000   -0.2000    0.4000
  band No.  band energies     occupation
      1     -10.3237      2.00000
      2       0.0352      0.00000
      3       0.1855      0.00000
      4       0.2642      0.00000
      5       0.4572      0.00000
      6       0.6293      0.00000
      7       0.9088      0.00000
      8       0.9819      0.00000

 k-point    60 :       0.2000   -0.2000    0.4000
  band No.  band energies     occupation
      1     -10.3237      2.00000
      2       0.0548      0.00000
      3       0.2080      0.00000
      4       0.2561      0.00000
      5       0.4877      0.00000
      6       0.6481      0.00000
      7       0.7249      0.00000
      8       0.8441      0.00000

 k-point    61 :       0.4000   -0.2000    0.4000
  band No.  band energies     occupation
      1     -10.3237      2.00000
      2       0.0947      0.00000
      3       0.2107      0.00000
      4       0.3157      0.00000
      5       0.4765      0.00000
      6       0.5635      0.00000
      7       0.6856      0.00000
      8       0.7645      0.00000

 k-point    62 :      -0.4000   -0.2000    0.4000
  band No.  band energies     occupation
      1     -10.3237      2.00000
      2       0.0947      0.00000
      3       0.2107      0.00000
      4       0.3157      0.00000
      5       0.4765      0.00000
      6       0.5635      0.00000
      7       0.6856      0.00000
      8       0.7645      0.00000

 k-point    63 :      -0.2000   -0.2000    0.4000
  band No.  band energies     occupation
      1     -10.3237      2.00000
      2       0.0548      0.00000
      3       0.2080      0.00000
      4       0.2561      0.00000
      5       0.4877      0.00000
      6       0.6481      0.00000
      7       0.7249      0.00000
      8       0.8441      0.00000


--------------------------------------------------------------------------------------------------------


 soft charge-density along one line, spin component           1
         0         1         2         3         4         5         6         7         8         9
 total charge-density along one line

 pseudopotential strength for first ion, spin component:           1
 -2.344  -4.039  -0.000   0.000  -0.002
 -4.039  -6.874  -0.000   0.000  -0.005
 -0.000  -0.000  -0.341  -0.000   0.000
  0.000   0.000  -0.000  -0.341  -0.000
 -0.002  -0.005   0.000  -0.000  -0.335
 total augmentation occupancy for first ion, spin component:           1
  2.996  -0.446   0.000  -0.000   0.372
 -0.446   0.066  -0.000   0.000  -0.055
  0.000  -0.000   0.000   0.000   0.000
 -0.000   0.000   0.000   0.000  -0.000
  0.372  -0.055   0.000  -0.000   0.046


------------------------ aborting loop because EDIFF is reached ----------------------------------------


    CHARGE:  cpu time    0.0742: real time    0.0743
    FORLOC:  cpu time    0.0021: real time    0.0021
    FORNL :  cpu time    0.0272: real time    0.0272
    STRESS:  cpu time    0.4871: real time    0.4872
    FORHAR:  cpu time    0.0222: real time    0.0222
    MIXING:  cpu time    0.0045: real time    0.0045
    OFIELD:  cpu time    0.0000: real time    0.0000

  FORCE on cell =-STRESS in cart. coord.  units (eV):
  Direction    XX          YY          ZZ          XY          YZ          ZX
  --------------------------------------------------------------------------------------
  Alpha Z     0.00357     0.00357     0.00357
  Ewald      17.69065    -1.94520    -2.36730     0.00000    -0.00000    -0.00000
  Hartree    11.82596     9.15495     8.73830     0.00000     0.00000    -0.00000
  E(xc)      -5.75439    -5.97457    -5.97457     0.00000     0.00000    -0.00000
  Local     -31.50048   -17.07462   -16.23586    -0.00000    -0.00000     0.00000
  n-local    -6.31240    -5.36925    -5.36924    -0.00000    -0.00000     0.00000
  augment     0.20381     0.27450     0.27461     0.00000     0.00000     0.00000
  Kinetic    13.75690    20.86331    20.86331    -0.00000    -0.00000     0.00000
  Fock        0.00000     0.00000     0.00000     0.00000     0.00000     0.00000
  -------------------------------------------------------------------------------------
  Total      -0.08638    -0.06730    -0.06718    -0.00000     0.00000     0.00000
  in kB      -0.05069    -0.03950    -0.03942    -0.00000     0.00000     0.00000
  external pressure =       -0.04 kB  Pullay stress =        0.00 kB


 VOLUME and BASIS-vectors are now :
 -----------------------------------------------------------------------------
  energy-cutoff  :      450.00
  volume of cell :     2730.00
      direct lattice vectors                 reciprocal lattice vectors
    13.000000000  0.000000000  0.000000000     0.076923077  0.000000000  0.000000000
     0.000000000 14.000000000  0.000000000     0.000000000  0.071428571  0.000000000
     0.000000000  0.000000000 15.000000000     0.000000000  0.000000000  0.066666667

  length of vectors
    13.000000000 14.000000000 15.000000000     0.076923077  0.071428571  0.066666667


 FORCES acting on ions
    electron-ion (+dipol)            ewald-force                    non-local-force                 convergence-correction
 -----------------------------------------------------------------------------------------------
   0.205E+02 0.307E-10 -.123E-06   -.255E+02 -.163E-09 0.489E-07   0.505E+01 0.807E-11 -.966E-08   0.226E-05 0.805E-10 -.138E-10
   -.205E+02 -.240E-09 0.798E-07   0.255E+02 0.163E-09 -.489E-07   -.505E+01 -.603E-10 0.969E-08   -.215E-05 0.805E-10 -.152E-10
 -----------------------------------------------------------------------------------------------
   0.579E-05 -.209E-09 -.431E-07   0.000E+00 -.787E-18 -.144E-18   0.460E-04 -.522E-10 0.232E-10   0.103E-06 0.161E-09 -.290E-10


 POSITION                                       TOTAL-FORCE (eV/Angst)
 -----------------------------------------------------------------------------------
      6.62473      7.00000      7.50000        -0.000538      0.000000     -0.000000
      7.37527      7.00000      7.50000         0.000538     -0.000000      0.000000
 -----------------------------------------------------------------------------------
    total drift:                                0.000052     -0.000000     -0.000000


--------------------------------------------------------------------------------------------------------



  FREE ENERGIE OF THE ION-ELECTRON SYSTEM (eV)
  ---------------------------------------------------
  free  energy   TOTEN  =        -6.76653657 eV

  energy  without entropy=       -6.76653657  energy(sigma->0) =       -6.76653657



--------------------------------------------------------------------------------------------------------


    POTLOK:  cpu time    0.1071: real time    0.1071


--------------------------------------------------------------------------------------------------------




--------------------------------------------------------------------------------------------------------



 reached required accuracy - stopping structural energy minimisation
     LOOP+:  cpu time   51.0477: real time   51.1846
    4ORBIT:  cpu time    0.0000: real time    0.0000

 total amount of memory used by VASP MPI-rank0    72167. kBytes
=======================================================================

   base      :      30000. kBytes
   nonl-proj :      18806. kBytes
   fftplans  :       6160. kBytes
   grid      :       9709. kBytes
   one-center:          1. kBytes
   wavefun   :       7491. kBytes



 General timing and accounting informations for this job:
 ========================================================

                  Total CPU time used (sec):       54.094
                            User time (sec):       52.213
                          System time (sec):        1.880
                         Elapsed time (sec):       54.499

                   Maximum memory used (kb):      274088.
                   Average memory used (kb):           0.

                          Minor page faults:        73071
                          Major page faults:           51
                 Voluntary context switches:           79
