ESCALE ; pCOHP file generated by LOBSTER. Energy is shifted such that the Fermi level lies at 0 eV.
        51          2        401  -1.75303e+01   2.51987e+00  -2.49266e+00 
Average
No.1:N71->Fe75(1.8062114494645798)
No.1:N71[2s]->Fe75[4s](1.8062114494645798)
No.1:N71[2s]->Fe75[3d_xy](1.8062114494645798)
No.1:N71[2s]->Fe75[3d_yz](1.8062114494645798)
No.1:N71[2s]->Fe75[3d_z^2](1.8062114494645798)
No.1:N71[2s]->Fe75[3d_xz](1.8062114494645798)
No.1:N71[2s]->Fe75[3d_x^2-y^2](1.8062114494645798)
No.1:N71[2p_y]->Fe75[4s](1.8062114494645798)
No.1:N71[2p_y]->Fe75[3d_xy](1.8062114494645798)
No.1:N71[2p_y]->Fe75[3d_yz](1.8062114494645798)
No.1:N71[2p_y]->Fe75[3d_z^2](1.8062114494645798)
No.1:N71[2p_y]->Fe75[3d_xz](1.8062114494645798)
No.1:N71[2p_y]->Fe75[3d_x^2-y^2](1.8062114494645798)
No.1:N71[2p_z]->Fe75[4s](1.8062114494645798)
No.1:N71[2p_z]->Fe75[3d_xy](1.8062114494645798)
No.1:N71[2p_z]->Fe75[3d_yz](1.8062114494645798)
No.1:N71[2p_z]->Fe75[3d_z^2](1.8062114494645798)
No.1:N71[2p_z]->Fe75[3d_xz](1.8062114494645798)
No.1:N71[2p_z]->Fe75[3d_x^2-y^2](1.8062114494645798)
No.1:N71[2p_x]->Fe75[4s](1.8062114494645798)
No.1:N71[2p_x]->Fe75[3d_xy](1.8062114494645798)
No.1:N71[2p_x]->Fe75[3d_yz](1.8062114494645798)
No.1:N71[2p_x]->Fe75[3d_z^2](1.8062114494645798)
No.1:N71[2p_x]->Fe75[3d_xz](1.8062114494645798)
No.1:N71[2p_x]->Fe75[3d_x^2-y^2](1.8062114494645798)
No.2:N71->Fe76(1.8401563619167465)
No.2:N71[2s]->Fe76[4s](1.8401563619167465)
No.2:N71[2s]->Fe76[3d_xy](1.8401563619167465)
No.2:N71[2s]->Fe76[3d_yz](1.8401563619167465)
No.2:N71[2s]->Fe76[3d_z^2](1.8401563619167465)
No.2:N71[2s]->Fe76[3d_xz](1.8401563619167465)
No.2:N71[2s]->Fe76[3d_x^2-y^2](1.8401563619167465)
No.2:N71[2p_y]->Fe76[4s](1.8401563619167465)
No.2:N71[2p_y]->Fe76[3d_xy](1.8401563619167465)
No.2:N71[2p_y]->Fe76[3d_yz](1.8401563619167465)
No.2:N71[2p_y]->Fe76[3d_z^2](1.8401563619167465)
No.2:N71[2p_y]->Fe76[3d_xz](1.8401563619167465)
No.2:N71[2p_y]->Fe76[3d_x^2-y^2](1.8401563619167465)
No.2:N71[2p_z]->Fe76[4s](1.8401563619167465)
No.2:N71[2p_z]->Fe76[3d_xy](1.8401563619167465)
No.2:N71[2p_z]->Fe76[3d_yz](1.8401563619167465)
No.2:N71[2p_z]->Fe76[3d_z^2](1.8401563619167465)
No.2:N71[2p_z]->Fe76[3d_xz](1.8401563619167465)
No.2:N71[2p_z]->Fe76[3d_x^2-y^2](1.8401563619167465)
No.2:N71[2p_x]->Fe76[4s](1.8401563619167465)
No.2:N71[2p_x]->Fe76[3d_xy](1.8401563619167465)
No.2:N71[2p_x]->Fe76[3d_yz](1.8401563619167465)
No.2:N71[2p_x]->Fe76[3d_z^2](1.8401563619167465)
No.2:N71[2p_x]->Fe76[3d_xz](1.8401563619167465)
No.2:N71[2p_x]->Fe76[3d_x^2-y^2](1.8401563619167465)
-15.03759   0.00000  -0.00846   0.00000  -0.10422   0.00000  -0.12838   0.00000  -0.00025   0.00000  -0.00376   0.00000  -0.02940   0.00000  -0.00662   0.00000  -0.00004   0.00000   0.00444   0.00000  -0.00016   0.00000  -0.00267   0.00000   0.00347   0.00000   0.00054   0.00000   0.00003   0.00000   0.03655   0.00000   0.00020   0.00000   0.00181   0.00000   0.01087   0.00000   0.00356   0.00000   0.00001   0.00000   0.00393   0.00000  -0.00005   0.00000   0.00025   0.00000   0.00296   0.00000  -0.00147   0.00000  -0.00003   0.00000  -0.10721   0.00000  -0.10595   0.00000  -0.01718   0.00000  -0.00001   0.00000  -0.00980   0.00000   0.00001   0.00000  -0.01214   0.00000   0.02340   0.00000   0.00760   0.00000  -0.00005   0.00000   0.00301   0.00000  -0.00001   0.00000   0.00238   0.00000  -0.00446   0.00000  -0.00059   0.00000  -0.00067   0.00000  -0.00075   0.00000  -0.00016   0.00000  -0.00049   0.00000   0.00552   0.00000  -0.00055   0.00000  -0.00001   0.00000   0.00072   0.00000  -0.00000   0.00000   0.00299   0.00000  -0.00877   0.00000  -0.10687   0.00000  -0.12733   0.00000  -0.00023   0.00000  -0.00375   0.00000  -0.03048   0.00000  -0.00669   0.00000  -0.00005   0.00000   0.00515   0.00000  -0.00014   0.00000  -0.00259   0.00000   0.00326   0.00000   0.00052   0.00000   0.00003   0.00000   0.03381   0.00000   0.00019   0.00000   0.00165   0.00000   0.01085   0.00000   0.00348   0.00000   0.00001   0.00000   0.00384   0.00000  -0.00004   0.00000   0.00024   0.00000   0.00297   0.00000  -0.00151   0.00000  -0.00004   0.00000  -0.11249   0.00000  -0.10934   0.00000  -0.01792   0.00000   0.00001   0.00000  -0.01072   0.00000   0.00001   0.00000  -0.01274   0.00000   0.02270   0.00000   0.00767   0.00000  -0.00004   0.00000   0.00300   0.00000  -0.00001   0.00000   0.00238   0.00000  -0.00314   0.00000  -0.00065   0.00000  -0.00049   0.00000  -0.00100   0.00000  -0.00012   0.00000  -0.00058   0.00000   0.00537   0.00000  -0.00061   0.00000  -0.00001   0.00000   0.00072   0.00000   0.00000   0.00000   0.00305
-14.98747  -0.00001  -0.00846  -0.00016  -0.10423  -0.00008  -0.12839   0.00000  -0.00025  -0.00000  -0.00376  -0.00004  -0.02941   0.00001  -0.00662  -0.00000  -0.00004  -0.00000   0.00444   0.00000  -0.00016  -0.00000  -0.00267  -0.00000   0.00347   0.00000   0.00054  -0.00000   0.00003  -0.00002   0.03655  -0.00000   0.00020   0.00000   0.00182  -0.00001   0.01087   0.00000   0.00356  -0.00000   0.00001  -0.00000   0.00393   0.00000  -0.00005   0.00000   0.00025  -0.00001   0.00296  -0.00000  -0.00147   0.00000  -0.00003  -0.00001  -0.10721  -0.00000  -0.10595  -0.00000  -0.01718   0.00000  -0.00001  -0.00000  -0.00980   0.00000   0.00001  -0.00000  -0.01214  -0.00000   0.02340  -0.00000   0.00760  -0.00000  -0.00005  -0.00000   0.00301   0.00000  -0.00001  -0.00000   0.00238   0.00000  -0.00446   0.00000  -0.00059  -0.00000  -0.00067   0.00000  -0.00075   0.00000  -0.00016   0.00000  -0.00049  -0.00000   0.00552   0.00000  -0.00055  -0.00000  -0.00001  -0.00000   0.00072   0.00000  -0.00000  -0.00000   0.00299  -0.00001  -0.00877  -0.00020  -0.10688  -0.00010  -0.12734   0.00000  -0.00023  -0.00000  -0.00375  -0.00005  -0.03049   0.00001  -0.00669  -0.00000  -0.00005  -0.00000   0.00515   0.00000  -0.00014  -0.00000  -0.00259  -0.00000   0.00326   0.00000   0.00052  -0.00000   0.00003  -0.00002   0.03381  -0.00000   0.00019   0.00000   0.00165  -0.00002   0.01085   0.00000   0.00348  -0.00000   0.00001  -0.00000   0.00384   0.00000  -0.00004   0.00000   0.00024  -0.00001   0.00297  -0.00000  -0.00151   0.00000  -0.00004  -0.00002  -0.11249  -0.00001  -0.10934  -0.00000  -0.01792  -0.00000   0.00001  -0.00000  -0.01072  -0.00000   0.00001  -0.00000  -0.01274  -0.00000   0.02270  -0.00000   0.00767   0.00000  -0.00004  -0.00000   0.00300   0.00000  -0.00001  -0.00000   0.00238   0.00000  -0.00314   0.00000  -0.00065  -0.00000  -0.00049   0.00000  -0.00100   0.00000  -0.00012   0.00000  -0.00058  -0.00000   0.00537   0.00000  -0.00061  -0.00000  -0.00001  -0.00000   0.00072  -0.00000   0.00000  -0.00000   0.00305
-14.93734  -0.00001  -0.00846  -0.00027  -0.10424  -0.00015  -0.12839   0.00000  -0.00025  -0.00001  -0.00376  -0.00006  -0.02941   0.00001  -0.00662  -0.00000  -0.00004  -0.00000   0.00444   0.00000  -0.00016  -0.00000  -0.00267  -0.00001   0.00347   0.00000   0.00054  -0.00000   0.00003  -0.00002   0.03655  -0.00000   0.00020   0.00000   0.00182  -0.00002   0.01087   0.00001   0.00356  -0.00000   0.00001  -0.00000   0.00393   0.00000  -0.00005  -0.00000   0.00025  -0.00001   0.00296  -0.00000  -0.00147   0.00000  -0.00003  -0.00002  -0.10721  -0.00000  -0.10595  -0.00000  -0.01718   0.00000  -0.00001  -0.00000  -0.00980   0.00000   0.00001  -0.00000  -0.01214  -0.00000   0.02340  -0.00000   0.00760  -0.00000  -0.00005  -0.00000   0.00301   0.00000  -0.00001  -0.00000   0.00238   0.00000  -0.00446   0.00000  -0.00059  -0.00000  -0.00067   0.00000  -0.00075   0.00000  -0.00016   0.00000  -0.00049  -0.00000   0.00552   0.00000  -0.00055  -0.00000  -0.00001  -0.00000   0.00072   0.00000  -0.00000  -0.00000   0.00299  -0.00001  -0.00878  -0.00033  -0.10690  -0.00019  -0.12735   0.00000  -0.00023  -0.00001  -0.00375  -0.00008  -0.03049   0.00001  -0.00669  -0.00000  -0.00005  -0.00000   0.00515   0.00000  -0.00014  -0.00000  -0.00259  -0.00001   0.00326   0.00000   0.00052  -0.00000   0.00003  -0.00002   0.03381  -0.00000   0.00019   0.00000   0.00165  -0.00002   0.01085   0.00000   0.00348  -0.00000   0.00001  -0.00000   0.00384   0.00000  -0.00004   0.00000   0.00024  -0.00001   0.00297  -0.00000  -0.00151   0.00000  -0.00004  -0.00002  -0.11249  -0.00001  -0.10934  -0.00001  -0.01792  -0.00000   0.00001  -0.00000  -0.01072  -0.00000   0.00001  -0.00000  -0.01274  -0.00000   0.02270  -0.00000   0.00767   0.00000  -0.00004  -0.00000   0.00300   0.00000  -0.00001  -0.00000   0.00238   0.00000  -0.00314   0.00000  -0.00065  -0.00000  -0.00049   0.00000  -0.00100   0.00000  -0.00012   0.00000  -0.00058  -0.00000   0.00537   0.00000  -0.00061  -0.00000  -0.00001  -0.00000   0.00072  -0.00000   0.00000  -0.00000   0.00305
-14.88722  -0.00000  -0.00846  -0.00009  -0.10425  -0.00002  -0.12839  -0.00000  -0.00025   0.00000  -0.00376  -0.00003  -0.02941   0.00001  -0.00662  -0.00000  -0.00004  -0.00000   0.00444   0.00000  -0.00016  -0.00000  -0.00267  -0.00001   0.00347   0.00000   0.00054  -0.00000   0.00003  -0.00001   0.03655  -0.00000   0.00020   0.00000   0.00182  -0.00002   0.01087   0.00000   0.00356  -0.00000   0.00001  -0.00000   0.00393   0.00000  -0.00005   0.00000   0.00025  -0.00001   0.00296  -0.00000  -0.00147   0.00000  -0.00003  -0.00001  -0.10721  -0.00000  -0.10595  -0.00000  -0.01718   0.00000  -0.00001  -0.00000  -0.00980  -0.00000   0.00001  -0.00000  -0.01214  -0.00000   0.02340  -0.00000   0.00760  -0.00000  -0.00005  -0.00000   0.00301  -0.00000  -0.00001  -0.00000   0.00238   0.00000  -0.00446   0.00000  -0.00059  -0.00000  -0.00067   0.00000  -0.00075  -0.00000  -0.00016   0.00000  -0.00049  -0.00000   0.00552   0.00000  -0.00055  -0.00000  -0.00001  -0.00000   0.00072  -0.00000  -0.00000  -0.00000   0.00299  -0.00001  -0.00878  -0.00011  -0.10690  -0.00004  -0.12735  -0.00000  -0.00023  -0.00000  -0.00375  -0.00004  -0.03049   0.00001  -0.00669  -0.00000  -0.00005  -0.00000   0.00515   0.00000  -0.00014  -0.00000  -0.00259  -0.00001   0.00326   0.00000   0.00052  -0.00000   0.00003  -0.00001   0.03381  -0.00000   0.00019   0.00000   0.00165  -0.00002   0.01084   0.00000   0.00348  -0.00000   0.00001  -0.00000   0.00384   0.00000  -0.00004   0.00000   0.00024  -0.00001   0.00297  -0.00000  -0.00151   0.00000  -0.00004  -0.00001  -0.11249  -0.00001  -0.10934  -0.00000  -0.01792  -0.00000   0.00001  -0.00000  -0.01072  -0.00000   0.00001  -0.00000  -0.01274  -0.00000   0.02270  -0.00000   0.00767  -0.00000  -0.00004  -0.00000   0.00300   0.00000  -0.00001  -0.00000   0.00238   0.00000  -0.00314   0.00000  -0.00065  -0.00000  -0.00049   0.00000  -0.00100  -0.00000  -0.00012   0.00000  -0.00058  -0.00000   0.00537   0.00000  -0.00061  -0.00000  -0.00001  -0.00000   0.00072   0.00000   0.00000  -0.00000   0.00305
-14.83709  -0.00000  -0.00846  -0.00008  -0.10425  -0.00002  -0.12840  -0.00000  -0.00025   0.00000  -0.00376  -0.00002  -0.02941   0.00000  -0.00662  -0.00000  -0.00004  -0.00000   0.00444   0.00000  -0.00016  -0.00000  -0.00267  -0.00001   0.00347   0.00000   0.00054  -0.00000   0.00003  -0.00001   0.03655  -0.00000   0.00020   0.00000   0.00182  -0.00001   0.01087   0.00000   0.00356  -0.00000   0.00001  -0.00000   0.00393   0.00000  -0.00005   0.00000   0.00025  -0.00001   0.00296  -0.00000  -0.00147   0.00000  -0.00003  -0.00001  -0.10721  -0.00000  -0.10595  -0.00000  -0.01718   0.00000  -0.00001  -0.00000  -0.00980  -0.00000   0.00001  -0.00000  -0.01214  -0.00000   0.02340  -0.00000   0.00760  -0.00000  -0.00005  -0.00000   0.00301  -0.00000  -0.00001  -0.00000   0.00238   0.00000  -0.00446   0.00000  -0.00059  -0.00000  -0.00067   0.00000  -0.00075  -0.00000  -0.00016   0.00000  -0.00049  -0.00000   0.00552   0.00000  -0.00055  -0.00000  -0.00001  -0.00000   0.00072  -0.00000  -0.00000  -0.00000   0.00299  -0.00000  -0.00878  -0.00010  -0.10691  -0.00003  -0.12735  -0.00000  -0.00023   0.00000  -0.00375  -0.00003  -0.03050   0.00001  -0.00669  -0.00000  -0.00005  -0.00000   0.00515   0.00000  -0.00014  -0.00000  -0.00259  -0.00000   0.00326   0.00000   0.00052  -0.00000   0.00003  -0.00001   0.03381  -0.00000   0.00019   0.00000   0.00165  -0.00001   0.01084   0.00000   0.00348  -0.00000   0.00001  -0.00000   0.00384   0.00000  -0.00004   0.00000   0.00024  -0.00001   0.00297  -0.00000  -0.00151   0.00000  -0.00004  -0.00001  -0.11249  -0.00000  -0.10934  -0.00000  -0.01792  -0.00000   0.00001  -0.00000  -0.01072  -0.00000   0.00001  -0.00000  -0.01274  -0.00000   0.02270  -0.00000   0.00767  -0.00000  -0.00004  -0.00000   0.00300  -0.00000  -0.00001  -0.00000   0.00238   0.00000  -0.00314   0.00000  -0.00065  -0.00000  -0.00049   0.00000  -0.00100  -0.00000  -0.00012   0.00000  -0.00058  -0.00000   0.00537   0.00000  -0.00061  -0.00000  -0.00001  -0.00000   0.00072   0.00000   0.00000  -0.00000   0.00305
-14.78697  -0.00004  -0.00846  -0.00101  -0.10430  -0.00041  -0.12842  -0.00000  -0.00025   0.00002  -0.00376  -0.00024  -0.02942  -0.00000  -0.00662   0.00000  -0.00004  -0.00002   0.00444   0.00000  -0.00016  -0.00003  -0.00267  -0.00004   0.00347  -0.00000   0.00054   0.00000   0.00003  -0.00013   0.03654  -0.00000   0.00020   0.00001   0.00182  -0.00010   0.01086  -0.00000   0.00356   0.00000   0.00001  -0.00002   0.00393   0.00000  -0.00005   0.00000   0.00025  -0.00005   0.00296   0.00000  -0.00147  -0.00000  -0.00003  -0.00005  -0.10721   0.00000  -0.10595  -0.00001  -0.01718   0.00000  -0.00001  -0.00000  -0.00980  -0.00000   0.00001  -0.00001  -0.01214  -0.00000   0.02340  -0.00001   0.00760  -0.00000  -0.00005  -0.00000   0.00301  -0.00000  -0.00001  -0.00000   0.00238   0.00000  -0.00446   0.00000  -0.00059  -0.00000  -0.00067   0.00000  -0.00075  -0.00000  -0.00016   0.00000  -0.00049  -0.00000   0.00552   0.00000  -0.00055  -0.00000  -0.00001  -0.00000   0.00072  -0.00000  -0.00000  -0.00001   0.00299  -0.00006  -0.00878  -0.00136  -0.10698  -0.00059  -0.12738  -0.00000  -0.00023   0.00003  -0.00375  -0.00035  -0.03051  -0.00001  -0.00669   0.00000  -0.00005  -0.00003   0.00515   0.00000  -0.00014  -0.00003  -0.00259  -0.00005   0.00325  -0.00000   0.00052   0.00000   0.00003  -0.00015   0.03380  -0.00000   0.00019   0.00002   0.00165  -0.00012   0.01084  -0.00000   0.00348   0.00000   0.00001  -0.00003   0.00384   0.00000  -0.00004   0.00000   0.00024  -0.00005   0.00296   0.00000  -0.00151  -0.00000  -0.00004  -0.00009  -0.11249  -0.00001  -0.10934  -0.00002  -0.01793  -0.00000   0.00001  -0.00001  -0.01072  -0.00000   0.00001  -0.00002  -0.01274  -0.00000   0.02270  -0.00001   0.00767  -0.00000  -0.00004  -0.00000   0.00300  -0.00000  -0.00001  -0.00000   0.00238   0.00000  -0.00314   0.00000  -0.00065  -0.00000  -0.00050   0.00000  -0.00100  -0.00000  -0.00012   0.00000  -0.00058  -0.00000   0.00537   0.00000  -0.00061  -0.00000  -0.00001  -0.00000   0.00072   0.00000   0.00000  -0.00001   0.00305
-14.73684  -0.00004  -0.00846  -0.00100  -0.10435  -0.00041  -0.12844  -0.00000  -0.00025   0.00003  -0.00376  -0.00024  -0.02944  -0.00002  -0.00662   0.00000  -0.00004  -0.00002   0.00444   0.00000  -0.00016  -0.00003  -0.00267  -0.00004   0.00346  -0.00000   0.00054   0.00000   0.00003  -0.00012   0.03653  -0.00000   0.00020   0.00002   0.00182  -0.00010   0.01086  -0.00001   0.00356   0.00000   0.00001  -0.00002   0.00393   0.00000  -0.00005   0.00000   0.00025  -0.00004   0.00296   0.00000  -0.00147  -0.00000  -0.00003  -0.00004  -0.10721   0.00001  -0.10595  -0.00001  -0.01718   0.00000  -0.00001  -0.00000  -0.00980  -0.00000   0.00001  -0.00001  -0.01214   0.00000   0.02340  -0.00001   0.00760  -0.00000  -0.00005  -0.00000   0.00301  -0.00000  -0.00001  -0.00000   0.00238   0.00000  -0.00446   0.00000  -0.00059  -0.00000  -0.00067   0.00000  -0.00075  -0.00000  -0.00016   0.00000  -0.00049   0.00000   0.00552   0.00000  -0.00055  -0.00000  -0.00001  -0.00000   0.00072  -0.00000  -0.00000  -0.00001   0.00299  -0.00005  -0.00878  -0.00127  -0.10704  -0.00056  -0.12741  -0.00000  -0.00023   0.00004  -0.00374  -0.00033  -0.03053  -0.00002  -0.00669   0.00000  -0.00005  -0.00003   0.00515   0.00000  -0.00014  -0.00003  -0.00260  -0.00004   0.00325  -0.00000   0.00052   0.00000   0.00003  -0.00013   0.03380  -0.00000   0.00019   0.00002   0.00165  -0.00011   0.01083  -0.00001   0.00348   0.00000   0.00001  -0.00002   0.00384   0.00000  -0.00004   0.00000   0.00024  -0.00005   0.00296   0.00001  -0.00151  -0.00000  -0.00004  -0.00007  -0.11250   0.00000  -0.10934  -0.00002  -0.01793  -0.00000   0.00001  -0.00001  -0.01072  -0.00000   0.00001  -0.00002  -0.01274  -0.00000   0.02270  -0.00001   0.00767  -0.00000  -0.00004  -0.00000   0.00300  -0.00000  -0.00001  -0.00000   0.00238   0.00000  -0.00314   0.00000  -0.00065  -0.00000  -0.00050   0.00000  -0.00100  -0.00000  -0.00012   0.00000  -0.00058  -0.00000   0.00537   0.00000  -0.00061  -0.00000  -0.00001  -0.00000   0.00072   0.00000   0.00000  -0.00001   0.00305
-14.68672  -0.00003  -0.00846  -0.00078  -0.10439  -0.00032  -0.12845  -0.00000  -0.00025   0.00002  -0.00376  -0.00019  -0.02945  -0.00001  -0.00662   0.00000  -0.00004  -0.00001   0.00444   0.00000  -0.00016  -0.00002  -0.00268  -0.00003   0.00346  -0.00000   0.00054   0.00000   0.00003  -0.00009   0.03653  -0.00000   0.00020   0.00001   0.00182  -0.00007   0.01085  -0.00001   0.00356   0.00000   0.00001  -0.00002   0.00393   0.00000  -0.00005   0.00000   0.00025  -0.00003   0.00295   0.00000  -0.00147  -0.00000  -0.00003  -0.00003  -0.10722   0.00000  -0.10595  -0.00001  -0.01718   0.00000  -0.00001  -0.00000  -0.00980  -0.00000   0.00001  -0.00001  -0.01214   0.00000   0.02340  -0.00001   0.00760  -0.00000  -0.00005  -0.00000   0.00301  -0.00000  -0.00001  -0.00000   0.00238   0.00000  -0.00446   0.00000  -0.00059  -0.00000  -0.00068   0.00000  -0.00075  -0.00000  -0.00016   0.00000  -0.00049   0.00000   0.00552   0.00000  -0.00055  -0.00000  -0.00001  -0.00000   0.00072  -0.00000  -0.00000  -0.00000   0.00299  -0.00004  -0.00878  -0.00099  -0.10709  -0.00044  -0.12743  -0.00000  -0.00023   0.00003  -0.00374  -0.00026  -0.03054  -0.00002  -0.00669   0.00000  -0.00005  -0.00002   0.00515   0.00000  -0.00014  -0.00002  -0.00260  -0.00003   0.00325  -0.00000   0.00052   0.00000   0.00003  -0.00010   0.03379  -0.00000   0.00019   0.00001   0.00165  -0.00008   0.01083  -0.00001   0.00348   0.00000   0.00001  -0.00002   0.00384   0.00000  -0.00004   0.00000   0.00024  -0.00004   0.00296   0.00001  -0.00151  -0.00000  -0.00004  -0.00006  -0.11250   0.00000  -0.10934  -0.00002  -0.01793  -0.00000   0.00001  -0.00001  -0.01072  -0.00000   0.00001  -0.00002  -0.01274  -0.00000   0.02270  -0.00001   0.00767  -0.00000  -0.00004  -0.00000   0.00300  -0.00000  -0.00001  -0.00000   0.00238   0.00000  -0.00314   0.00000  -0.00065  -0.00000  -0.00050   0.00000  -0.00100  -0.00000  -0.00012   0.00000  -0.00058  -0.00000   0.00537   0.00000  -0.00061  -0.00000  -0.00001  -0.00000   0.00072   0.00000   0.00000  -0.00001   0.00305
-14.63659  -0.00002  -0.00847  -0.00054  -0.10442  -0.00023  -0.12846  -0.00000  -0.00025   0.00001  -0.00376  -0.00014  -0.02945  -0.00001  -0.00662   0.00000  -0.00004  -0.00001   0.00444   0.00000  -0.00016  -0.00002  -0.00268  -0.00002   0.00346  -0.00000   0.00054   0.00000   0.00003  -0.00006   0.03653  -0.00000   0.00020   0.00001   0.00182  -0.00005   0.01085  -0.00000   0.00356   0.00000   0.00001  -0.00001   0.00393   0.00000  -0.00005   0.00000   0.00025  -0.00002   0.00295   0.00000  -0.00147  -0.00000  -0.00003  -0.00003  -0.10722   0.00000  -0.10595  -0.00001  -0.01718   0.00000  -0.00001  -0.00000  -0.00980  -0.00000   0.00001  -0.00001  -0.01214   0.00000   0.02340  -0.00000   0.00760  -0.00000  -0.00005  -0.00000   0.00301  -0.00000  -0.00001  -0.00000   0.00238   0.00000  -0.00446   0.00000  -0.00059  -0.00000  -0.00068   0.00000  -0.00075  -0.00000  -0.00016   0.00000  -0.00049   0.00000   0.00552   0.00000  -0.00055  -0.00000  -0.00001  -0.00000   0.00072  -0.00000  -0.00000  -0.00000   0.00299  -0.00003  -0.00879  -0.00069  -0.10712  -0.00030  -0.12745  -0.00000  -0.00023   0.00002  -0.00374  -0.00018  -0.03055  -0.00001  -0.00669   0.00000  -0.00005  -0.00001   0.00515   0.00000  -0.00014  -0.00001  -0.00260  -0.00002   0.00325  -0.00000   0.00052   0.00000   0.00003  -0.00007   0.03379  -0.00000   0.00019   0.00001   0.00165  -0.00006   0.01082  -0.00000   0.00348   0.00000   0.00001  -0.00001   0.00383   0.00000  -0.00004   0.00000   0.00024  -0.00002   0.00296   0.00000  -0.00151  -0.00000  -0.00004  -0.00005  -0.11250  -0.00000  -0.10934  -0.00001  -0.01793  -0.00000   0.00001  -0.00000  -0.01072  -0.00000   0.00001  -0.00001  -0.01274  -0.00000   0.02270  -0.00001   0.00767  -0.00000  -0.00004  -0.00000   0.00300  -0.00000  -0.00001  -0.00000   0.00238   0.00000  -0.00314   0.00000  -0.00065  -0.00000  -0.00050   0.00000  -0.00100  -0.00000  -0.00012   0.00000  -0.00058  -0.00000   0.00537   0.00000  -0.00061  -0.00000  -0.00001  -0.00000   0.00072   0.00000   0.00000  -0.00000   0.00305
-14.58647  -0.00001  -0.00847  -0.00031  -0.10443  -0.00013  -0.12847  -0.00000  -0.00025   0.00000  -0.00376  -0.00008  -0.02946   0.00000  -0.00662   0.00000  -0.00004  -0.00001   0.00444   0.00000  -0.00016  -0.00001  -0.00268  -0.00001   0.00346   0.00000   0.00054   0.00000   0.00003  -0.00004   0.03652  -0.00000   0.00020   0.00000   0.00182  -0.00003   0.01085   0.00000   0.00356   0.00000   0.00001  -0.00001   0.00393   0.00000  -0.00005   0.00000   0.00025  -0.00001   0.00295  -0.00000  -0.00147  -0.00000  -0.00003  -0.00002  -0.10722  -0.00000  -0.10595  -0.00000  -0.01718   0.00000  -0.00001  -0.00000  -0.00980  -0.00000   0.00001  -0.00000  -0.01214  -0.00000   0.02340  -0.00000   0.00760  -0.00000  -0.00005  -0.00000   0.00301  -0.00000  -0.00001  -0.00000   0.00238   0.00000  -0.00446   0.00000  -0.00059  -0.00000  -0.00068   0.00000  -0.00075  -0.00000  -0.00016   0.00000  -0.00049  -0.00000   0.00552   0.00000  -0.00055  -0.00000  -0.00001  -0.00000   0.00072  -0.00000  -0.00000  -0.00000   0.00299  -0.00002  -0.00879  -0.00041  -0.10715  -0.00018  -0.12746  -0.00000  -0.00023   0.00000  -0.00374  -0.00011  -0.03056   0.00000  -0.00669   0.00000  -0.00005  -0.00001   0.00515   0.00000  -0.00014  -0.00001  -0.00260  -0.00001   0.00325   0.00000   0.00052   0.00000   0.00003  -0.00004   0.03378  -0.00000   0.00019   0.00000   0.00165  -0.00004   0.01082   0.00000   0.00348  -0.00000   0.00001  -0.00001   0.00383   0.00000  -0.00004   0.00000   0.00024  -0.00002   0.00296  -0.00000  -0.00151  -0.00000  -0.00004  -0.00004  -0.11251  -0.00001  -0.10934  -0.00001  -0.01793  -0.00000   0.00001  -0.00000  -0.01072  -0.00000   0.00001  -0.00001  -0.01274  -0.00000   0.02270  -0.00000   0.00767  -0.00000  -0.00004  -0.00000   0.00300  -0.00000  -0.00001  -0.00000   0.00238   0.00000  -0.00314   0.00000  -0.00065  -0.00000  -0.00050   0.00000  -0.00100  -0.00000  -0.00012   0.00000  -0.00058  -0.00000   0.00537   0.00000  -0.00061  -0.00000  -0.00001  -0.00000   0.00072   0.00000   0.00000  -0.00000   0.00305
-14.53634  -0.00001  -0.00847  -0.00020  -0.10444  -0.00007  -0.12847   0.00000  -0.00025  -0.00000  -0.00376  -0.00006  -0.02946   0.00001  -0.00662  -0.00000  -0.00004  -0.00000   0.00444   0.00000  -0.00016  -0.00000  -0.00268  -0.00001   0.00346   0.00000   0.00054  -0.00000   0.00003  -0.00003   0.03652  -0.00000   0.00020   0.00000   0.00182  -0.00003   0.01085   0.00001   0.00356  -0.00000   0.00001  -0.00000   0.00393   0.00000  -0.00005   0.00000   0.00025  -0.00001   0.00295  -0.00000  -0.00147   0.00000  -0.00003  -0.00003  -0.10722  -0.00001  -0.10595  -0.00000  -0.01718   0.00000  -0.00001  -0.00000  -0.00980  -0.00000   0.00001  -0.00000  -0.01214  -0.00000   0.02340  -0.00000   0.00760  -0.00000  -0.00005  -0.00000   0.00301  -0.00000  -0.00001  -0.00000   0.00238   0.00000  -0.00446   0.00000  -0.00059  -0.00000  -0.00068   0.00000  -0.00075  -0.00000  -0.00016   0.00000  -0.00049  -0.00000   0.00552   0.00000  -0.00055  -0.00000  -0.00001  -0.00000   0.00072  -0.00000  -0.00000  -0.00000   0.00299  -0.00001  -0.00879  -0.00029  -0.10716  -0.00012  -0.12746  -0.00000  -0.00023  -0.00000  -0.00374  -0.00008  -0.03056   0.00001  -0.00669  -0.00000  -0.00005  -0.00001   0.00515   0.00000  -0.00014  -0.00000  -0.00260  -0.00001   0.00325   0.00000   0.00052  -0.00000   0.00003  -0.00003   0.03378  -0.00000   0.00019  -0.00000   0.00165  -0.00003   0.01082   0.00001   0.00348  -0.00000   0.00001  -0.00000   0.00383   0.00000  -0.00004  -0.00000   0.00024  -0.00001   0.00296  -0.00000  -0.00151   0.00000  -0.00004  -0.00005  -0.11251  -0.00002  -0.10934  -0.00001  -0.01793  -0.00000   0.00001  -0.00000  -0.01072  -0.00000   0.00001  -0.00001  -0.01274  -0.00000   0.02270  -0.00000   0.00766  -0.00000  -0.00004  -0.00000   0.00300  -0.00000  -0.00001  -0.00000   0.00238   0.00000  -0.00314   0.00000  -0.00065  -0.00000  -0.00050   0.00000  -0.00100  -0.00000  -0.00012   0.00000  -0.00058  -0.00000   0.00537   0.00000  -0.00061  -0.00000  -0.00001  -0.00000   0.00072   0.00000   0.00000  -0.00000   0.00305
-14.48622  -0.00001  -0.00847  -0.00027  -0.10445  -0.00010  -0.12848   0.00000  -0.00025  -0.00001  -0.00376  -0.00008  -0.02946   0.00002  -0.00662  -0.00000  -0.00004  -0.00000   0.00443   0.00000  -0.00016  -0.00000  -0.00268  -0.00001   0.00346   0.00000   0.00054  -0.00000   0.00003  -0.00003   0.03652  -0.00000   0.00020   0.00000   0.00182  -0.00004   0.01084   0.00001   0.00356  -0.00000   0.00001  -0.00000   0.00393   0.00000  -0.00005   0.00000   0.00025  -0.00001   0.00295  -0.00000  -0.00147   0.00000  -0.00003  -0.00004  -0.10722  -0.00001  -0.10595  -0.00000  -0.01718   0.00000  -0.00001  -0.00000  -0.00980  -0.00000   0.00001  -0.00000  -0.01214  -0.00000   0.02340  -0.00000   0.00760  -0.00000  -0.00005  -0.00000   0.00301  -0.00000  -0.00001  -0.00000   0.00238   0.00000  -0.00446   0.00000  -0.00059  -0.00000  -0.00068   0.00000  -0.00075  -0.00000  -0.00016   0.00000  -0.00049  -0.00000   0.00552   0.00000  -0.00055  -0.00000  -0.00001  -0.00000   0.00072  -0.00000  -0.00000  -0.00000   0.00299  -0.00002  -0.00879  -0.00039  -0.10718  -0.00016  -0.12747  -0.00000  -0.00023  -0.00001  -0.00374  -0.00012  -0.03057   0.00002  -0.00669  -0.00000  -0.00005  -0.00001   0.00515   0.00000  -0.00014  -0.00000  -0.00260  -0.00001   0.00325   0.00000   0.00052  -0.00000   0.00003  -0.00005   0.03378  -0.00000   0.00019  -0.00000   0.00165  -0.00005   0.01082   0.00001   0.00348  -0.00000   0.00001  -0.00001   0.00383   0.00000  -0.00004  -0.00000   0.00024  -0.00002   0.00296  -0.00001  -0.00151   0.00000  -0.00004  -0.00007  -0.11251  -0.00003  -0.10934  -0.00001  -0.01793  -0.00000   0.00001  -0.00001  -0.01072  -0.00000   0.00001  -0.00001  -0.01274  -0.00001   0.02270  -0.00000   0.00766  -0.00000  -0.00004  -0.00000   0.00299  -0.00000  -0.00001  -0.00000   0.00238   0.00000  -0.00314   0.00000  -0.00065  -0.00000  -0.00050   0.00000  -0.00100  -0.00000  -0.00012   0.00000  -0.00058  -0.00000   0.00537   0.00000  -0.00061  -0.00000  -0.00001  -0.00000   0.00072   0.00000   0.00000  -0.00000   0.00305
-14.43609  -0.00002  -0.00847  -0.00034  -0.10447  -0.00012  -0.12849   0.00000  -0.00025  -0.00001  -0.00376  -0.00010  -0.02947   0.00002  -0.00662  -0.00000  -0.00004  -0.00001   0.00443   0.00000  -0.00016  -0.00000  -0.00268  -0.00002   0.00346   0.00000   0.00054  -0.00000   0.00003  -0.00004   0.03652  -0.00000   0.00020   0.00000   0.00182  -0.00005   0.01084   0.00001   0.00356  -0.00000   0.00001  -0.00001   0.00393   0.00000  -0.00005   0.00000   0.00025  -0.00002   0.00295  -0.00001  -0.00147   0.00000  -0.00003  -0.00005  -0.10722  -0.00002  -0.10595  -0.00001  -0.01718   0.00000  -0.00001  -0.00000  -0.00980  -0.00000   0.00001  -0.00001  -0.01214  -0.00001   0.02340  -0.00000   0.00760  -0.00000  -0.00005  -0.00000   0.00301  -0.00000  -0.00001  -0.00000   0.00238   0.00000  -0.00446   0.00000  -0.00059  -0.00000  -0.00068   0.00000  -0.00075  -0.00000  -0.00016   0.00000  -0.00049  -0.00000   0.00552   0.00000  -0.00055  -0.00000  -0.00001  -0.00000   0.00072  -0.00000  -0.00000  -0.00000   0.00299  -0.00002  -0.00879  -0.00051  -0.10720  -0.00021  -0.12748  -0.00000  -0.00023  -0.00001  -0.00374  -0.00015  -0.03057   0.00002  -0.00669  -0.00000  -0.00005  -0.00001   0.00515   0.00000  -0.00014  -0.00000  -0.00260  -0.00002   0.00325   0.00000   0.00052  -0.00000   0.00003  -0.00006   0.03378  -0.00000   0.00019  -0.00000   0.00165  -0.00006   0.01082   0.00001   0.00348  -0.00000   0.00001  -0.00001   0.00383   0.00000  -0.00004  -0.00000   0.00024  -0.00002   0.00295  -0.00001  -0.00151   0.00000  -0.00004  -0.00009  -0.11252  -0.00003  -0.10934  -0.00001  -0.01793  -0.00000   0.00001  -0.00001  -0.01072  -0.00000   0.00001  -0.00001  -0.01274  -0.00001   0.02270  -0.00001   0.00766  -0.00000  -0.00004  -0.00000   0.00299  -0.00000  -0.00001  -0.00000   0.00238   0.00000  -0.00314   0.00000  -0.00065  -0.00000  -0.00050   0.00000  -0.00100  -0.00000  -0.00012   0.00000  -0.00058  -0.00000   0.00537   0.00000  -0.00061  -0.00000  -0.00001  -0.00000   0.00072   0.00000   0.00000  -0.00000   0.00304